s 1.000000000 _1_ AGT  --- 0 cbr 1000 [0 0 0 0] ------- [1:0 0:0 32 0] [0] 0 0
r 1.000000000 _1_ RTR  --- 0 cbr 1000 [0 0 0 0] ------- [1:0 0:0 32 0] [0] 0 0
s 1.000000000 _1_ AGT  --- 1 cbr 24 [0 0 0 0] ------- [1:0 0:0 32 0] [1] 0 0
r 1.000000000 _1_ RTR  --- 1 cbr 24 [0 0 0 0] ------- [1:0 0:0 32 0] [1] 0 0
s 1.000000000 _1_ RTR  --- 0 AODV 48 [0 0 0 0] ------- [1:255 -1:255 30 0] [0x2 1 1 [0 0] [1 4]] (REQUEST)
r 1.001408129 _59_ RTR  --- 0 AODV 48 [0 ffffffff 1 800] ------- [1:255 -1:255 30 0] [0x2 1 1 [0 0] [1 4]] (REQUEST)
r 1.001408199 _17_ RTR  --- 0 AODV 48 [0 ffffffff 1 800] ------- [1:255 -1:255 30 0] [0x2 1 1 [0 0] [1 4]] (REQUEST)
r 1.001408226 _4_ RTR  --- 0 AODV 48 [0 ffffffff 1 800] ------- [1:255 -1:255 30 0] [0x2 1 1 [0 0] [1 4]] (REQUEST)
r 1.001408271 _68_ RTR  --- 0 AODV 48 [0 ffffffff 1 800] ------- [1:255 -1:255 30 0] [0x2 1 1 [0 0] [1 4]] (REQUEST)
r 1.001408360 _31_ RTR  --- 0 AODV 48 [0 ffffffff 1 800] ------- [1:255 -1:255 30 0] [0x2 1 1 [0 0] [1 4]] (REQUEST)
r 1.001408428 _46_ RTR  --- 0 AODV 48 [0 ffffffff 1 800] ------- [1:255 -1:255 30 0] [0x2 1 1 [0 0] [1 4]] (REQUEST)
r 1.001408545 _12_ RTR  --- 0 AODV 48 [0 ffffffff 1 800] ------- [1:255 -1:255 30 0] [0x2 1 1 [0 0] [1 4]] (REQUEST)
r 1.001408611 _11_ RTR  --- 0 AODV 48 [0 ffffffff 1 800] ------- [1:255 -1:255 30 0] [0x2 1 1 [0 0] [1 4]] (REQUEST)
r 1.001408620 _74_ RTR  --- 0 AODV 48 [0 ffffffff 1 800] ------- [1:255 -1:255 30 0] [0x2 1 1 [0 0] [1 4]] (REQUEST)
r 1.001408632 _79_ RTR  --- 0 AODV 48 [0 ffffffff 1 800] ------- [1:255 -1:255 30 0] [0x2 1 1 [0 0] [1 4]] (REQUEST)
r 1.001408641 _0_ RTR  --- 0 AODV 48 [0 ffffffff 1 800] ------- [1:255 -1:255 30 0] [0x2 1 1 [0 0] [1 4]] (REQUEST)
s 1.001408641 _0_ RTR  --- 0 AODV 44 [0 0 0 0] ------- [0:255 1:255 30 1] [0x4 1 [0 4] 10.000000] (REPLY)
r 1.001408661 _72_ RTR  --- 0 AODV 48 [0 ffffffff 1 800] ------- [1:255 -1:255 30 0] [0x2 1 1 [0 0] [1 4]] (REQUEST)
r 1.001408674 _41_ RTR  --- 0 AODV 48 [0 ffffffff 1 800] ------- [1:255 -1:255 30 0] [0x2 1 1 [0 0] [1 4]] (REQUEST)
r 1.001408699 _52_ RTR  --- 0 AODV 48 [0 ffffffff 1 800] ------- [1:255 -1:255 30 0] [0x2 1 1 [0 0] [1 4]] (REQUEST)
r 1.001408703 _8_ RTR  --- 0 AODV 48 [0 ffffffff 1 800] ------- [1:255 -1:255 30 0] [0x2 1 1 [0 0] [1 4]] (REQUEST)
r 1.001408704 _65_ RTR  --- 0 AODV 48 [0 ffffffff 1 800] ------- [1:255 -1:255 30 0] [0x2 1 1 [0 0] [1 4]] (REQUEST)
r 1.001408706 _34_ RTR  --- 0 AODV 48 [0 ffffffff 1 800] ------- [1:255 -1:255 30 0] [0x2 1 1 [0 0] [1 4]] (REQUEST)
r 1.001408748 _51_ RTR  --- 0 AODV 48 [0 ffffffff 1 800] ------- [1:255 -1:255 30 0] [0x2 1 1 [0 0] [1 4]] (REQUEST)
r 1.001408779 _48_ RTR  --- 0 AODV 48 [0 ffffffff 1 800] ------- [1:255 -1:255 30 0] [0x2 1 1 [0 0] [1 4]] (REQUEST)
s 1.001550176 _59_ RTR  --- 0 AODV 48 [0 ffffffff 1 800] ------- [59:255 -1:255 29 0] [0x2 2 1 [0 0] [1 4]] (REQUEST)
s 1.001836619 _41_ RTR  --- 0 AODV 48 [0 ffffffff 1 800] ------- [41:255 -1:255 29 0] [0x2 2 1 [0 0] [1 4]] (REQUEST)
s 1.002289426 _17_ RTR  --- 0 AODV 48 [0 ffffffff 1 800] ------- [17:255 -1:255 29 0] [0x2 2 1 [0 0] [1 4]] (REQUEST)
s 1.002350167 _48_ RTR  --- 0 AODV 48 [0 ffffffff 1 800] ------- [48:255 -1:255 29 0] [0x2 2 1 [0 0] [1 4]] (REQUEST)
s 1.002546786 _8_ RTR  --- 0 AODV 48 [0 ffffffff 1 800] ------- [8:255 -1:255 29 0] [0x2 2 1 [0 0] [1 4]] (REQUEST)
s 1.003050115 _72_ RTR  --- 0 AODV 48 [0 ffffffff 1 800] ------- [72:255 -1:255 29 0] [0x2 2 1 [0 0] [1 4]] (REQUEST)
s 1.003156800 _51_ RTR  --- 0 AODV 48 [0 ffffffff 1 800] ------- [51:255 -1:255 29 0] [0x2 2 1 [0 0] [1 4]] (REQUEST)
r 1.003415364 _59_ RTR  --- 0 AODV 48 [0 ffffffff 11 800] ------- [17:255 -1:255 29 0] [0x2 2 1 [0 0] [1 4]] (REQUEST)
r 1.003415366 _1_ RTR  --- 0 AODV 48 [0 ffffffff 11 800] ------- [17:255 -1:255 29 0] [0x2 2 1 [0 0] [1 4]] (REQUEST)
r 1.003415553 _4_ RTR  --- 0 AODV 48 [0 ffffffff 11 800] ------- [17:255 -1:255 29 0] [0x2 2 1 [0 0] [1 4]] (REQUEST)
r 1.003415586 _68_ RTR  --- 0 AODV 48 [0 ffffffff 11 800] ------- [17:255 -1:255 29 0] [0x2 2 1 [0 0] [1 4]] (REQUEST)
r 1.003415634 _79_ RTR  --- 0 AODV 48 [0 ffffffff 11 800] ------- [17:255 -1:255 29 0] [0x2 2 1 [0 0] [1 4]] (REQUEST)
r 1.003415652 _72_ RTR  --- 0 AODV 48 [0 ffffffff 11 800] ------- [17:255 -1:255 29 0] [0x2 2 1 [0 0] [1 4]] (REQUEST)
r 1.003415689 _52_ RTR  --- 0 AODV 48 [0 ffffffff 11 800] ------- [17:255 -1:255 29 0] [0x2 2 1 [0 0] [1 4]] (REQUEST)
r 1.003415692 _0_ RTR  --- 0 AODV 48 [0 ffffffff 11 800] ------- [17:255 -1:255 29 0] [0x2 2 1 [0 0] [1 4]] (REQUEST)
r 1.003415725 _31_ RTR  --- 0 AODV 48 [0 ffffffff 11 800] ------- [17:255 -1:255 29 0] [0x2 2 1 [0 0] [1 4]] (REQUEST)
r 1.003415757 _48_ RTR  --- 0 AODV 48 [0 ffffffff 11 800] ------- [17:255 -1:255 29 0] [0x2 2 1 [0 0] [1 4]] (REQUEST)
r 1.003415775 _34_ RTR  --- 0 AODV 48 [0 ffffffff 11 800] ------- [17:255 -1:255 29 0] [0x2 2 1 [0 0] [1 4]] (REQUEST)
r 1.003415790 _46_ RTR  --- 0 AODV 48 [0 ffffffff 11 800] ------- [17:255 -1:255 29 0] [0x2 2 1 [0 0] [1 4]] (REQUEST)
r 1.003415885 _74_ RTR  --- 0 AODV 48 [0 ffffffff 11 800] ------- [17:255 -1:255 29 0] [0x2 2 1 [0 0] [1 4]] (REQUEST)
r 1.003415898 _12_ RTR  --- 0 AODV 48 [0 ffffffff 11 800] ------- [17:255 -1:255 29 0] [0x2 2 1 [0 0] [1 4]] (REQUEST)
r 1.003415949 _11_ RTR  --- 0 AODV 48 [0 ffffffff 11 800] ------- [17:255 -1:255 29 0] [0x2 2 1 [0 0] [1 4]] (REQUEST)
r 1.003415978 _10_ RTR  --- 0 AODV 48 [0 ffffffff 11 800] ------- [17:255 -1:255 29 0] [0x2 2 1 [0 0] [1 4]] (REQUEST)
r 1.003415981 _8_ RTR  --- 0 AODV 48 [0 ffffffff 11 800] ------- [17:255 -1:255 29 0] [0x2 2 1 [0 0] [1 4]] (REQUEST)
s 1.003754562 _12_ RTR  --- 0 AODV 48 [0 ffffffff 1 800] ------- [12:255 -1:255 29 0] [0x2 2 1 [0 0] [1 4]] (REQUEST)
r 1.004353493 _1_ RTR  --- 0 AODV 48 [0 ffffffff 3b 800] ------- [59:255 -1:255 29 0] [0x2 2 1 [0 0] [1 4]] (REQUEST)
r 1.004353561 _4_ RTR  --- 0 AODV 48 [0 ffffffff 3b 800] ------- [59:255 -1:255 29 0] [0x2 2 1 [0 0] [1 4]] (REQUEST)
r 1.004353561 _17_ RTR  --- 0 AODV 48 [0 ffffffff 3b 800] ------- [59:255 -1:255 29 0] [0x2 2 1 [0 0] [1 4]] (REQUEST)
r 1.004353588 _68_ RTR  --- 0 AODV 48 [0 ffffffff 3b 800] ------- [59:255 -1:255 29 0] [0x2 2 1 [0 0] [1 4]] (REQUEST)
r 1.004353794 _31_ RTR  --- 0 AODV 48 [0 ffffffff 3b 800] ------- [59:255 -1:255 29 0] [0x2 2 1 [0 0] [1 4]] (REQUEST)
r 1.004353874 _46_ RTR  --- 0 AODV 48 [0 ffffffff 3b 800] ------- [59:255 -1:255 29 0] [0x2 2 1 [0 0] [1 4]] (REQUEST)
r 1.004353889 _0_ RTR  --- 0 AODV 48 [0 ffffffff 3b 800] ------- [59:255 -1:255 29 0] [0x2 2 1 [0 0] [1 4]] (REQUEST)
r 1.004353895 _74_ RTR  --- 0 AODV 48 [0 ffffffff 3b 800] ------- [59:255 -1:255 29 0] [0x2 2 1 [0 0] [1 4]] (REQUEST)
r 1.004353906 _79_ RTR  --- 0 AODV 48 [0 ffffffff 3b 800] ------- [59:255 -1:255 29 0] [0x2 2 1 [0 0] [1 4]] (REQUEST)
r 1.004354003 _12_ RTR  --- 0 AODV 48 [0 ffffffff 3b 800] ------- [59:255 -1:255 29 0] [0x2 2 1 [0 0] [1 4]] (REQUEST)
r 1.004354033 _65_ RTR  --- 0 AODV 48 [0 ffffffff 3b 800] ------- [59:255 -1:255 29 0] [0x2 2 1 [0 0] [1 4]] (REQUEST)
r 1.004354045 _72_ RTR  --- 0 AODV 48 [0 ffffffff 3b 800] ------- [59:255 -1:255 29 0] [0x2 2 1 [0 0] [1 4]] (REQUEST)
r 1.004354083 _52_ RTR  --- 0 AODV 48 [0 ffffffff 3b 800] ------- [59:255 -1:255 29 0] [0x2 2 1 [0 0] [1 4]] (REQUEST)
r 1.004354084 _11_ RTR  --- 0 AODV 48 [0 ffffffff 3b 800] ------- [59:255 -1:255 29 0] [0x2 2 1 [0 0] [1 4]] (REQUEST)
r 1.004354130 _20_ RTR  --- 0 AODV 48 [0 ffffffff 3b 800] ------- [59:255 -1:255 29 0] [0x2 2 1 [0 0] [1 4]] (REQUEST)
r 1.004354136 _51_ RTR  --- 0 AODV 48 [0 ffffffff 3b 800] ------- [59:255 -1:255 29 0] [0x2 2 1 [0 0] [1 4]] (REQUEST)
r 1.004354144 _48_ RTR  --- 0 AODV 48 [0 ffffffff 3b 800] ------- [59:255 -1:255 29 0] [0x2 2 1 [0 0] [1 4]] (REQUEST)
r 1.004354144 _41_ RTR  --- 0 AODV 48 [0 ffffffff 3b 800] ------- [59:255 -1:255 29 0] [0x2 2 1 [0 0] [1 4]] (REQUEST)
r 1.004354149 _34_ RTR  --- 0 AODV 48 [0 ffffffff 3b 800] ------- [59:255 -1:255 29 0] [0x2 2 1 [0 0] [1 4]] (REQUEST)
r 1.004354195 _8_ RTR  --- 0 AODV 48 [0 ffffffff 3b 800] ------- [59:255 -1:255 29 0] [0x2 2 1 [0 0] [1 4]] (REQUEST)
s 1.004499411 _74_ RTR  --- 0 AODV 48 [0 ffffffff 1 800] ------- [74:255 -1:255 29 0] [0x2 2 1 [0 0] [1 4]] (REQUEST)
s 1.004537977 _31_ RTR  --- 0 AODV 48 [0 ffffffff 1 800] ------- [31:255 -1:255 29 0] [0x2 2 1 [0 0] [1 4]] (REQUEST)
s 1.005645274 _34_ RTR  --- 0 AODV 48 [0 ffffffff 1 800] ------- [34:255 -1:255 29 0] [0x2 2 1 [0 0] [1 4]] (REQUEST)
s 1.005819960 _4_ RTR  --- 0 AODV 48 [0 ffffffff 1 800] ------- [4:255 -1:255 29 0] [0x2 2 1 [0 0] [1 4]] (REQUEST)
r 1.007162287 _52_ RTR  --- 0 AODV 48 [0 ffffffff 30 800] ------- [48:255 -1:255 29 0] [0x2 2 1 [0 0] [1 4]] (REQUEST)
r 1.007162317 _72_ RTR  --- 0 AODV 48 [0 ffffffff 30 800] ------- [48:255 -1:255 29 0] [0x2 2 1 [0 0] [1 4]] (REQUEST)
r 1.007162440 _10_ RTR  --- 0 AODV 48 [0 ffffffff 30 800] ------- [48:255 -1:255 29 0] [0x2 2 1 [0 0] [1 4]] (REQUEST)
r 1.007162487 _69_ RTR  --- 0 AODV 48 [0 ffffffff 30 800] ------- [48:255 -1:255 29 0] [0x2 2 1 [0 0] [1 4]] (REQUEST)
r 1.007162644 _34_ RTR  --- 0 AODV 48 [0 ffffffff 30 800] ------- [48:255 -1:255 29 0] [0x2 2 1 [0 0] [1 4]] (REQUEST)
r 1.007162655 _15_ RTR  --- 0 AODV 48 [0 ffffffff 30 800] ------- [48:255 -1:255 29 0] [0x2 2 1 [0 0] [1 4]] (REQUEST)
r 1.007162715 _79_ RTR  --- 0 AODV 48 [0 ffffffff 30 800] ------- [48:255 -1:255 29 0] [0x2 2 1 [0 0] [1 4]] (REQUEST)
r 1.007162753 _17_ RTR  --- 0 AODV 48 [0 ffffffff 30 800] ------- [48:255 -1:255 29 0] [0x2 2 1 [0 0] [1 4]] (REQUEST)
r 1.007162834 _27_ RTR  --- 0 AODV 48 [0 ffffffff 30 800] ------- [48:255 -1:255 29 0] [0x2 2 1 [0 0] [1 4]] (REQUEST)
r 1.007162910 _0_ RTR  --- 0 AODV 48 [0 ffffffff 30 800] ------- [48:255 -1:255 29 0] [0x2 2 1 [0 0] [1 4]] (REQUEST)
r 1.007162942 _1_ RTR  --- 0 AODV 48 [0 ffffffff 30 800] ------- [48:255 -1:255 29 0] [0x2 2 1 [0 0] [1 4]] (REQUEST)
r 1.007162944 _59_ RTR  --- 0 AODV 48 [0 ffffffff 30 800] ------- [48:255 -1:255 29 0] [0x2 2 1 [0 0] [1 4]] (REQUEST)
r 1.007162966 _55_ RTR  --- 0 AODV 48 [0 ffffffff 30 800] ------- [48:255 -1:255 29 0] [0x2 2 1 [0 0] [1 4]] (REQUEST)
s 1.007271049 _55_ RTR  --- 0 AODV 48 [0 ffffffff 30 800] ------- [55:255 -1:255 28 0] [0x2 3 1 [0 0] [1 4]] (REQUEST)
s 1.007746860 _27_ RTR  --- 0 AODV 48 [0 ffffffff 30 800] ------- [27:255 -1:255 28 0] [0x2 3 1 [0 0] [1 4]] (REQUEST)
s 1.007797262 _11_ RTR  --- 0 AODV 48 [0 ffffffff 1 800] ------- [11:255 -1:255 29 0] [0x2 2 1 [0 0] [1 4]] (REQUEST)
s 1.007809376 _52_ RTR  --- 0 AODV 48 [0 ffffffff 1 800] ------- [52:255 -1:255 29 0] [0x2 2 1 [0 0] [1 4]] (REQUEST)
r 1.008240356 _52_ RTR  --- 0 AODV 48 [0 ffffffff 48 800] ------- [72:255 -1:255 29 0] [0x2 2 1 [0 0] [1 4]] (REQUEST)
r 1.008240470 _48_ RTR  --- 0 AODV 48 [0 ffffffff 48 800] ------- [72:255 -1:255 29 0] [0x2 2 1 [0 0] [1 4]] (REQUEST)
r 1.008240668 _34_ RTR  --- 0 AODV 48 [0 ffffffff 48 800] ------- [72:255 -1:255 29 0] [0x2 2 1 [0 0] [1 4]] (REQUEST)
r 1.008240746 _10_ RTR  --- 0 AODV 48 [0 ffffffff 48 800] ------- [72:255 -1:255 29 0] [0x2 2 1 [0 0] [1 4]] (REQUEST)
r 1.008240758 _69_ RTR  --- 0 AODV 48 [0 ffffffff 48 800] ------- [72:255 -1:255 29 0] [0x2 2 1 [0 0] [1 4]] (REQUEST)
r 1.008240802 _17_ RTR  --- 0 AODV 48 [0 ffffffff 48 800] ------- [72:255 -1:255 29 0] [0x2 2 1 [0 0] [1 4]] (REQUEST)
r 1.008240888 _79_ RTR  --- 0 AODV 48 [0 ffffffff 48 800] ------- [72:255 -1:255 29 0] [0x2 2 1 [0 0] [1 4]] (REQUEST)
r 1.008240894 _27_ RTR  --- 0 AODV 48 [0 ffffffff 48 800] ------- [72:255 -1:255 29 0] [0x2 2 1 [0 0] [1 4]] (REQUEST)
r 1.008240951 _15_ RTR  --- 0 AODV 48 [0 ffffffff 48 800] ------- [72:255 -1:255 29 0] [0x2 2 1 [0 0] [1 4]] (REQUEST)
r 1.008240977 _1_ RTR  --- 0 AODV 48 [0 ffffffff 48 800] ------- [72:255 -1:255 29 0] [0x2 2 1 [0 0] [1 4]] (REQUEST)
r 1.008240998 _59_ RTR  --- 0 AODV 48 [0 ffffffff 48 800] ------- [72:255 -1:255 29 0] [0x2 2 1 [0 0] [1 4]] (REQUEST)
r 1.008241067 _0_ RTR  --- 0 AODV 48 [0 ffffffff 48 800] ------- [72:255 -1:255 29 0] [0x2 2 1 [0 0] [1 4]] (REQUEST)
s 1.008282969 _15_ RTR  --- 0 AODV 48 [0 ffffffff 30 800] ------- [15:255 -1:255 28 0] [0x2 3 1 [0 0] [1 4]] (REQUEST)
r 1.009158939 _27_ RTR  --- 0 AODV 48 [0 ffffffff 22 800] ------- [34:255 -1:255 29 0] [0x2 2 1 [0 0] [1 4]] (REQUEST)
r 1.009159019 _72_ RTR  --- 0 AODV 48 [0 ffffffff 22 800] ------- [34:255 -1:255 29 0] [0x2 2 1 [0 0] [1 4]] (REQUEST)
r 1.009159032 _52_ RTR  --- 0 AODV 48 [0 ffffffff 22 800] ------- [34:255 -1:255 29 0] [0x2 2 1 [0 0] [1 4]] (REQUEST)
r 1.009159222 _3_ RTR  --- 0 AODV 48 [0 ffffffff 22 800] ------- [34:255 -1:255 29 0] [0x2 2 1 [0 0] [1 4]] (REQUEST)
r 1.009159224 _60_ RTR  --- 0 AODV 48 [0 ffffffff 22 800] ------- [34:255 -1:255 29 0] [0x2 2 1 [0 0] [1 4]] (REQUEST)
r 1.009159260 _78_ RTR  --- 0 AODV 48 [0 ffffffff 22 800] ------- [34:255 -1:255 29 0] [0x2 2 1 [0 0] [1 4]] (REQUEST)
r 1.009159467 _56_ RTR  --- 0 AODV 48 [0 ffffffff 22 800] ------- [34:255 -1:255 29 0] [0x2 2 1 [0 0] [1 4]] (REQUEST)
s 1.009399826 _68_ RTR  --- 0 AODV 48 [0 ffffffff 1 800] ------- [68:255 -1:255 29 0] [0x2 2 1 [0 0] [1 4]] (REQUEST)
s 1.009435041 _56_ RTR  --- 0 AODV 48 [0 ffffffff 22 800] ------- [56:255 -1:255 28 0] [0x2 3 1 [0 0] [1 4]] (REQUEST)
s 1.009573189 _46_ RTR  --- 0 AODV 48 [0 ffffffff 1 800] ------- [46:255 -1:255 29 0] [0x2 2 1 [0 0] [1 4]] (REQUEST)
s 1.009771867 _79_ RTR  --- 0 AODV 48 [0 ffffffff 1 800] ------- [79:255 -1:255 29 0] [0x2 2 1 [0 0] [1 4]] (REQUEST)
s 1.010005981 _65_ RTR  --- 0 AODV 48 [0 ffffffff 1 800] ------- [65:255 -1:255 29 0] [0x2 2 1 [0 0] [1 4]] (REQUEST)
r 1.010217071 _72_ RTR  --- 0 AODV 48 [0 ffffffff 34 800] ------- [52:255 -1:255 29 0] [0x2 2 1 [0 0] [1 4]] (REQUEST)
r 1.010217155 _48_ RTR  --- 0 AODV 48 [0 ffffffff 34 800] ------- [52:255 -1:255 29 0] [0x2 2 1 [0 0] [1 4]] (REQUEST)
r 1.010217395 _34_ RTR  --- 0 AODV 48 [0 ffffffff 34 800] ------- [52:255 -1:255 29 0] [0x2 2 1 [0 0] [1 4]] (REQUEST)
r 1.010217430 _10_ RTR  --- 0 AODV 48 [0 ffffffff 34 800] ------- [52:255 -1:255 29 0] [0x2 2 1 [0 0] [1 4]] (REQUEST)
r 1.010217433 _69_ RTR  --- 0 AODV 48 [0 ffffffff 34 800] ------- [52:255 -1:255 29 0] [0x2 2 1 [0 0] [1 4]] (REQUEST)
r 1.010217554 _17_ RTR  --- 0 AODV 48 [0 ffffffff 34 800] ------- [52:255 -1:255 29 0] [0x2 2 1 [0 0] [1 4]] (REQUEST)
r 1.010217607 _27_ RTR  --- 0 AODV 48 [0 ffffffff 34 800] ------- [52:255 -1:255 29 0] [0x2 2 1 [0 0] [1 4]] (REQUEST)
r 1.010217617 _79_ RTR  --- 0 AODV 48 [0 ffffffff 34 800] ------- [52:255 -1:255 29 0] [0x2 2 1 [0 0] [1 4]] (REQUEST)
r 1.010217644 _15_ RTR  --- 0 AODV 48 [0 ffffffff 34 800] ------- [52:255 -1:255 29 0] [0x2 2 1 [0 0] [1 4]] (REQUEST)
r 1.010217731 _1_ RTR  --- 0 AODV 48 [0 ffffffff 34 800] ------- [52:255 -1:255 29 0] [0x2 2 1 [0 0] [1 4]] (REQUEST)
r 1.010217750 _59_ RTR  --- 0 AODV 48 [0 ffffffff 34 800] ------- [52:255 -1:255 29 0] [0x2 2 1 [0 0] [1 4]] (REQUEST)
r 1.010217801 _0_ RTR  --- 0 AODV 48 [0 ffffffff 34 800] ------- [52:255 -1:255 29 0] [0x2 2 1 [0 0] [1 4]] (REQUEST)
r 1.011415817 _0_ RTR  --- 0 AODV 48 [0 ffffffff 4f 800] ------- [79:255 -1:255 29 0] [0x2 2 1 [0 0] [1 4]] (REQUEST)
r 1.011416084 _17_ RTR  --- 0 AODV 48 [0 ffffffff 4f 800] ------- [79:255 -1:255 29 0] [0x2 2 1 [0 0] [1 4]] (REQUEST)
r 1.011416091 _75_ RTR  --- 0 AODV 48 [0 ffffffff 4f 800] ------- [79:255 -1:255 29 0] [0x2 2 1 [0 0] [1 4]] (REQUEST)
r 1.011416156 _66_ RTR  --- 0 AODV 48 [0 ffffffff 4f 800] ------- [79:255 -1:255 29 0] [0x2 2 1 [0 0] [1 4]] (REQUEST)
r 1.011416159 _59_ RTR  --- 0 AODV 48 [0 ffffffff 4f 800] ------- [79:255 -1:255 29 0] [0x2 2 1 [0 0] [1 4]] (REQUEST)
r 1.011416168 _48_ RTR  --- 0 AODV 48 [0 ffffffff 4f 800] ------- [79:255 -1:255 29 0] [0x2 2 1 [0 0] [1 4]] (REQUEST)
r 1.011416188 _72_ RTR  --- 0 AODV 48 [0 ffffffff 4f 800] ------- [79:255 -1:255 29 0] [0x2 2 1 [0 0] [1 4]] (REQUEST)
r 1.011416190 _15_ RTR  --- 0 AODV 48 [0 ffffffff 4f 800] ------- [79:255 -1:255 29 0] [0x2 2 1 [0 0] [1 4]] (REQUEST)
r 1.011416203 _52_ RTR  --- 0 AODV 48 [0 ffffffff 4f 800] ------- [79:255 -1:255 29 0] [0x2 2 1 [0 0] [1 4]] (REQUEST)
r 1.011416224 _10_ RTR  --- 0 AODV 48 [0 ffffffff 4f 800] ------- [79:255 -1:255 29 0] [0x2 2 1 [0 0] [1 4]] (REQUEST)
r 1.011416249 _1_ RTR  --- 0 AODV 48 [0 ffffffff 4f 800] ------- [79:255 -1:255 29 0] [0x2 2 1 [0 0] [1 4]] (REQUEST)
r 1.011416290 _47_ RTR  --- 0 AODV 48 [0 ffffffff 4f 800] ------- [79:255 -1:255 29 0] [0x2 2 1 [0 0] [1 4]] (REQUEST)
r 1.011416329 _29_ RTR  --- 0 AODV 48 [0 ffffffff 4f 800] ------- [79:255 -1:255 29 0] [0x2 2 1 [0 0] [1 4]] (REQUEST)
r 1.011416330 _4_ RTR  --- 0 AODV 48 [0 ffffffff 4f 800] ------- [79:255 -1:255 29 0] [0x2 2 1 [0 0] [1 4]] (REQUEST)
r 1.011416333 _68_ RTR  --- 0 AODV 48 [0 ffffffff 4f 800] ------- [79:255 -1:255 29 0] [0x2 2 1 [0 0] [1 4]] (REQUEST)
r 1.011416336 _53_ RTR  --- 0 AODV 48 [0 ffffffff 4f 800] ------- [79:255 -1:255 29 0] [0x2 2 1 [0 0] [1 4]] (REQUEST)
r 1.011416380 _24_ RTR  --- 0 AODV 48 [0 ffffffff 4f 800] ------- [79:255 -1:255 29 0] [0x2 2 1 [0 0] [1 4]] (REQUEST)
r 1.011416422 _77_ RTR  --- 0 AODV 48 [0 ffffffff 4f 800] ------- [79:255 -1:255 29 0] [0x2 2 1 [0 0] [1 4]] (REQUEST)
r 1.011416439 _69_ RTR  --- 0 AODV 48 [0 ffffffff 4f 800] ------- [79:255 -1:255 29 0] [0x2 2 1 [0 0] [1 4]] (REQUEST)
r 1.011416449 _74_ RTR  --- 0 AODV 48 [0 ffffffff 4f 800] ------- [79:255 -1:255 29 0] [0x2 2 1 [0 0] [1 4]] (REQUEST)
r 1.011416450 _35_ RTR  --- 0 AODV 48 [0 ffffffff 4f 800] ------- [79:255 -1:255 29 0] [0x2 2 1 [0 0] [1 4]] (REQUEST)
s 1.011777463 _3_ RTR  --- 0 AODV 48 [0 ffffffff 22 800] ------- [3:255 -1:255 28 0] [0x2 3 1 [0 0] [1 4]] (REQUEST)
s 1.011917670 _53_ RTR  --- 0 AODV 48 [0 ffffffff 4f 800] ------- [53:255 -1:255 28 0] [0x2 3 1 [0 0] [1 4]] (REQUEST)
s 1.011927044 _10_ RTR  --- 0 AODV 48 [0 ffffffff 11 800] ------- [10:255 -1:255 28 0] [0x2 3 1 [0 0] [1 4]] (REQUEST)
s 1.012329860 _47_ RTR  --- 0 AODV 48 [0 ffffffff 4f 800] ------- [47:255 -1:255 28 0] [0x2 3 1 [0 0] [1 4]] (REQUEST)
r 1.012354739 _20_ RTR  --- 0 AODV 48 [0 ffffffff 4a 800] ------- [74:255 -1:255 29 0] [0x2 2 1 [0 0] [1 4]] (REQUEST)
r 1.012354771 _65_ RTR  --- 0 AODV 48 [0 ffffffff 4a 800] ------- [74:255 -1:255 29 0] [0x2 2 1 [0 0] [1 4]] (REQUEST)
r 1.012354798 _71_ RTR  --- 0 AODV 48 [0 ffffffff 4a 800] ------- [74:255 -1:255 29 0] [0x2 2 1 [0 0] [1 4]] (REQUEST)
r 1.012354811 _68_ RTR  --- 0 AODV 48 [0 ffffffff 4a 800] ------- [74:255 -1:255 29 0] [0x2 2 1 [0 0] [1 4]] (REQUEST)
r 1.012354861 _4_ RTR  --- 0 AODV 48 [0 ffffffff 4a 800] ------- [74:255 -1:255 29 0] [0x2 2 1 [0 0] [1 4]] (REQUEST)
r 1.012354980 _59_ RTR  --- 0 AODV 48 [0 ffffffff 4a 800] ------- [74:255 -1:255 29 0] [0x2 2 1 [0 0] [1 4]] (REQUEST)
r 1.012354998 _44_ RTR  --- 0 AODV 48 [0 ffffffff 4a 800] ------- [74:255 -1:255 29 0] [0x2 2 1 [0 0] [1 4]] (REQUEST)
r 1.012355000 _36_ RTR  --- 0 AODV 48 [0 ffffffff 4a 800] ------- [74:255 -1:255 29 0] [0x2 2 1 [0 0] [1 4]] (REQUEST)
r 1.012355035 _43_ RTR  --- 0 AODV 48 [0 ffffffff 4a 800] ------- [74:255 -1:255 29 0] [0x2 2 1 [0 0] [1 4]] (REQUEST)
r 1.012355069 _1_ RTR  --- 0 AODV 48 [0 ffffffff 4a 800] ------- [74:255 -1:255 29 0] [0x2 2 1 [0 0] [1 4]] (REQUEST)
r 1.012355070 _31_ RTR  --- 0 AODV 48 [0 ffffffff 4a 800] ------- [74:255 -1:255 29 0] [0x2 2 1 [0 0] [1 4]] (REQUEST)
r 1.012355085 _51_ RTR  --- 0 AODV 48 [0 ffffffff 4a 800] ------- [74:255 -1:255 29 0] [0x2 2 1 [0 0] [1 4]] (REQUEST)
r 1.012355089 _45_ RTR  --- 0 AODV 48 [0 ffffffff 4a 800] ------- [74:255 -1:255 29 0] [0x2 2 1 [0 0] [1 4]] (REQUEST)
r 1.012355129 _0_ RTR  --- 0 AODV 48 [0 ffffffff 4a 800] ------- [74:255 -1:255 29 0] [0x2 2 1 [0 0] [1 4]] (REQUEST)
r 1.012355147 _46_ RTR  --- 0 AODV 48 [0 ffffffff 4a 800] ------- [74:255 -1:255 29 0] [0x2 2 1 [0 0] [1 4]] (REQUEST)
r 1.012355152 _50_ RTR  --- 0 AODV 48 [0 ffffffff 4a 800] ------- [74:255 -1:255 29 0] [0x2 2 1 [0 0] [1 4]] (REQUEST)
r 1.012355161 _54_ RTR  --- 0 AODV 48 [0 ffffffff 4a 800] ------- [74:255 -1:255 29 0] [0x2 2 1 [0 0] [1 4]] (REQUEST)
r 1.012355167 _17_ RTR  --- 0 AODV 48 [0 ffffffff 4a 800] ------- [74:255 -1:255 29 0] [0x2 2 1 [0 0] [1 4]] (REQUEST)
r 1.012355184 _24_ RTR  --- 0 AODV 48 [0 ffffffff 4a 800] ------- [74:255 -1:255 29 0] [0x2 2 1 [0 0] [1 4]] (REQUEST)
r 1.012355241 _30_ RTR  --- 0 AODV 48 [0 ffffffff 4a 800] ------- [74:255 -1:255 29 0] [0x2 2 1 [0 0] [1 4]] (REQUEST)
r 1.012355251 _37_ RTR  --- 0 AODV 48 [0 ffffffff 4a 800] ------- [74:255 -1:255 29 0] [0x2 2 1 [0 0] [1 4]] (REQUEST)
r 1.012355282 _12_ RTR  --- 0 AODV 48 [0 ffffffff 4a 800] ------- [74:255 -1:255 29 0] [0x2 2 1 [0 0] [1 4]] (REQUEST)
r 1.012998847 _13_ RTR  --- 0 AODV 48 [0 ffffffff 37 800] ------- [55:255 -1:255 28 0] [0x2 3 1 [0 0] [1 4]] (REQUEST)
r 1.012998986 _21_ RTR  --- 0 AODV 48 [0 ffffffff 37 800] ------- [55:255 -1:255 28 0] [0x2 3 1 [0 0] [1 4]] (REQUEST)
r 1.012999250 _70_ RTR  --- 0 AODV 48 [0 ffffffff 37 800] ------- [55:255 -1:255 28 0] [0x2 3 1 [0 0] [1 4]] (REQUEST)
r 1.012999279 _25_ RTR  --- 0 AODV 48 [0 ffffffff 37 800] ------- [55:255 -1:255 28 0] [0x2 3 1 [0 0] [1 4]] (REQUEST)
r 1.012999386 _67_ RTR  --- 0 AODV 48 [0 ffffffff 37 800] ------- [55:255 -1:255 28 0] [0x2 3 1 [0 0] [1 4]] (REQUEST)
r 1.012999406 _32_ RTR  --- 0 AODV 48 [0 ffffffff 37 800] ------- [55:255 -1:255 28 0] [0x2 3 1 [0 0] [1 4]] (REQUEST)
s 1.013001025 _25_ RTR  --- 0 AODV 48 [0 ffffffff 37 800] ------- [25:255 -1:255 27 0] [0x2 4 1 [0 0] [1 4]] (REQUEST)
s 1.013203370 _75_ RTR  --- 0 AODV 48 [0 ffffffff 4f 800] ------- [75:255 -1:255 28 0] [0x2 3 1 [0 0] [1 4]] (REQUEST)
s 1.013403585 _20_ RTR  --- 0 AODV 48 [0 ffffffff 3b 800] ------- [20:255 -1:255 28 0] [0x2 3 1 [0 0] [1 4]] (REQUEST)
r 1.013413419 _11_ RTR  --- 0 AODV 48 [0 ffffffff c 800] ------- [12:255 -1:255 29 0] [0x2 2 1 [0 0] [1 4]] (REQUEST)
r 1.013413425 _46_ RTR  --- 0 AODV 48 [0 ffffffff c 800] ------- [12:255 -1:255 29 0] [0x2 2 1 [0 0] [1 4]] (REQUEST)
r 1.013413449 _41_ RTR  --- 0 AODV 48 [0 ffffffff c 800] ------- [12:255 -1:255 29 0] [0x2 2 1 [0 0] [1 4]] (REQUEST)
r 1.013413512 _31_ RTR  --- 0 AODV 48 [0 ffffffff c 800] ------- [12:255 -1:255 29 0] [0x2 2 1 [0 0] [1 4]] (REQUEST)
r 1.013413612 _42_ RTR  --- 0 AODV 48 [0 ffffffff c 800] ------- [12:255 -1:255 29 0] [0x2 2 1 [0 0] [1 4]] (REQUEST)
r 1.013413729 _8_ RTR  --- 0 AODV 48 [0 ffffffff c 800] ------- [12:255 -1:255 29 0] [0x2 2 1 [0 0] [1 4]] (REQUEST)
r 1.013413731 _51_ RTR  --- 0 AODV 48 [0 ffffffff c 800] ------- [12:255 -1:255 29 0] [0x2 2 1 [0 0] [1 4]] (REQUEST)
r 1.013413805 _4_ RTR  --- 0 AODV 48 [0 ffffffff c 800] ------- [12:255 -1:255 29 0] [0x2 2 1 [0 0] [1 4]] (REQUEST)
r 1.013413827 _1_ RTR  --- 0 AODV 48 [0 ffffffff c 800] ------- [12:255 -1:255 29 0] [0x2 2 1 [0 0] [1 4]] (REQUEST)
r 1.013413836 _68_ RTR  --- 0 AODV 48 [0 ffffffff c 800] ------- [12:255 -1:255 29 0] [0x2 2 1 [0 0] [1 4]] (REQUEST)
r 1.013413851 _18_ RTR  --- 0 AODV 48 [0 ffffffff c 800] ------- [12:255 -1:255 29 0] [0x2 2 1 [0 0] [1 4]] (REQUEST)
r 1.013413921 _59_ RTR  --- 0 AODV 48 [0 ffffffff c 800] ------- [12:255 -1:255 29 0] [0x2 2 1 [0 0] [1 4]] (REQUEST)
r 1.013413956 _65_ RTR  --- 0 AODV 48 [0 ffffffff c 800] ------- [12:255 -1:255 29 0] [0x2 2 1 [0 0] [1 4]] (REQUEST)
r 1.013413976 _44_ RTR  --- 0 AODV 48 [0 ffffffff c 800] ------- [12:255 -1:255 29 0] [0x2 2 1 [0 0] [1 4]] (REQUEST)
r 1.013413986 _61_ RTR  --- 0 AODV 48 [0 ffffffff c 800] ------- [12:255 -1:255 29 0] [0x2 2 1 [0 0] [1 4]] (REQUEST)
r 1.013414014 _17_ RTR  --- 0 AODV 48 [0 ffffffff c 800] ------- [12:255 -1:255 29 0] [0x2 2 1 [0 0] [1 4]] (REQUEST)
r 1.013414015 _28_ RTR  --- 0 AODV 48 [0 ffffffff c 800] ------- [12:255 -1:255 29 0] [0x2 2 1 [0 0] [1 4]] (REQUEST)
r 1.013414030 _26_ RTR  --- 0 AODV 48 [0 ffffffff c 800] ------- [12:255 -1:255 29 0] [0x2 2 1 [0 0] [1 4]] (REQUEST)
r 1.013414053 _36_ RTR  --- 0 AODV 48 [0 ffffffff c 800] ------- [12:255 -1:255 29 0] [0x2 2 1 [0 0] [1 4]] (REQUEST)
r 1.013414104 _56_ RTR  --- 0 AODV 48 [0 ffffffff c 800] ------- [12:255 -1:255 29 0] [0x2 2 1 [0 0] [1 4]] (REQUEST)
r 1.013414115 _74_ RTR  --- 0 AODV 48 [0 ffffffff c 800] ------- [12:255 -1:255 29 0] [0x2 2 1 [0 0] [1 4]] (REQUEST)
s 1.013416132 _78_ RTR  --- 0 AODV 48 [0 ffffffff 22 800] ------- [78:255 -1:255 28 0] [0x2 3 1 [0 0] [1 4]] (REQUEST)
s 1.013447489 _61_ RTR  --- 0 AODV 48 [0 ffffffff c 800] ------- [61:255 -1:255 28 0] [0x2 3 1 [0 0] [1 4]] (REQUEST)
s 1.013833685 _67_ RTR  --- 0 AODV 48 [0 ffffffff 37 800] ------- [67:255 -1:255 27 0] [0x2 4 1 [0 0] [1 4]] (REQUEST)
r 1.014109384 _14_ RTR  --- 0 AODV 48 [0 ffffffff 19 800] ------- [25:255 -1:255 27 0] [0x2 4 1 [0 0] [1 4]] (REQUEST)
r 1.014109419 _9_ RTR  --- 0 AODV 48 [0 ffffffff 19 800] ------- [25:255 -1:255 27 0] [0x2 4 1 [0 0] [1 4]] (REQUEST)
r 1.014109566 _2_ RTR  --- 0 AODV 48 [0 ffffffff 19 800] ------- [25:255 -1:255 27 0] [0x2 4 1 [0 0] [1 4]] (REQUEST)
r 1.014109617 _38_ RTR  --- 0 AODV 48 [0 ffffffff 19 800] ------- [25:255 -1:255 27 0] [0x2 4 1 [0 0] [1 4]] (REQUEST)
r 1.014109644 _55_ RTR  --- 0 AODV 48 [0 ffffffff 19 800] ------- [25:255 -1:255 27 0] [0x2 4 1 [0 0] [1 4]] (REQUEST)
r 1.014109700 _13_ RTR  --- 0 AODV 48 [0 ffffffff 19 800] ------- [25:255 -1:255 27 0] [0x2 4 1 [0 0] [1 4]] (REQUEST)
r 1.014109702 _47_ RTR  --- 0 AODV 48 [0 ffffffff 19 800] ------- [25:255 -1:255 27 0] [0x2 4 1 [0 0] [1 4]] (REQUEST)
r 1.014109767 _53_ RTR  --- 0 AODV 48 [0 ffffffff 19 800] ------- [25:255 -1:255 27 0] [0x2 4 1 [0 0] [1 4]] (REQUEST)
r 1.014109829 _15_ RTR  --- 0 AODV 48 [0 ffffffff 19 800] ------- [25:255 -1:255 27 0] [0x2 4 1 [0 0] [1 4]] (REQUEST)
r 1.014312313 _78_ RTR  --- 0 AODV 48 [0 ffffffff 38 800] ------- [56:255 -1:255 28 0] [0x2 3 1 [0 0] [1 4]] (REQUEST)
r 1.014312421 _22_ RTR  --- 0 AODV 48 [0 ffffffff 38 800] ------- [56:255 -1:255 28 0] [0x2 3 1 [0 0] [1 4]] (REQUEST)
r 1.014312483 _7_ RTR  --- 0 AODV 48 [0 ffffffff 38 800] ------- [56:255 -1:255 28 0] [0x2 3 1 [0 0] [1 4]] (REQUEST)
r 1.014312484 _8_ RTR  --- 0 AODV 48 [0 ffffffff 38 800] ------- [56:255 -1:255 28 0] [0x2 3 1 [0 0] [1 4]] (REQUEST)
r 1.014312486 _18_ RTR  --- 0 AODV 48 [0 ffffffff 38 800] ------- [56:255 -1:255 28 0] [0x2 3 1 [0 0] [1 4]] (REQUEST)
r 1.014312598 _26_ RTR  --- 0 AODV 48 [0 ffffffff 38 800] ------- [56:255 -1:255 28 0] [0x2 3 1 [0 0] [1 4]] (REQUEST)
r 1.014312611 _58_ RTR  --- 0 AODV 48 [0 ffffffff 38 800] ------- [56:255 -1:255 28 0] [0x2 3 1 [0 0] [1 4]] (REQUEST)
r 1.014312650 _28_ RTR  --- 0 AODV 48 [0 ffffffff 38 800] ------- [56:255 -1:255 28 0] [0x2 3 1 [0 0] [1 4]] (REQUEST)
r 1.014312783 _60_ RTR  --- 0 AODV 48 [0 ffffffff 38 800] ------- [56:255 -1:255 28 0] [0x2 3 1 [0 0] [1 4]] (REQUEST)
r 1.014312790 _3_ RTR  --- 0 AODV 48 [0 ffffffff 38 800] ------- [56:255 -1:255 28 0] [0x2 3 1 [0 0] [1 4]] (REQUEST)
r 1.014312796 _11_ RTR  --- 0 AODV 48 [0 ffffffff 38 800] ------- [56:255 -1:255 28 0] [0x2 3 1 [0 0] [1 4]] (REQUEST)
r 1.014312807 _41_ RTR  --- 0 AODV 48 [0 ffffffff 38 800] ------- [56:255 -1:255 28 0] [0x2 3 1 [0 0] [1 4]] (REQUEST)
r 1.014312858 _27_ RTR  --- 0 AODV 48 [0 ffffffff 38 800] ------- [56:255 -1:255 28 0] [0x2 3 1 [0 0] [1 4]] (REQUEST)
r 1.014312912 _61_ RTR  --- 0 AODV 48 [0 ffffffff 38 800] ------- [56:255 -1:255 28 0] [0x2 3 1 [0 0] [1 4]] (REQUEST)
s 1.014472393 _22_ RTR  --- 0 AODV 48 [0 ffffffff 38 800] ------- [22:255 -1:255 27 0] [0x2 4 1 [0 0] [1 4]] (REQUEST)
s 1.014707621 _60_ RTR  --- 0 AODV 48 [0 ffffffff 22 800] ------- [60:255 -1:255 28 0] [0x2 3 1 [0 0] [1 4]] (REQUEST)
r 1.015036708 _71_ RTR  --- 0 AODV 48 [0 ffffffff 14 800] ------- [20:255 -1:255 28 0] [0x2 3 1 [0 0] [1 4]] (REQUEST)
r 1.015036747 _43_ RTR  --- 0 AODV 48 [0 ffffffff 14 800] ------- [20:255 -1:255 28 0] [0x2 3 1 [0 0] [1 4]] (REQUEST)
r 1.015036882 _50_ RTR  --- 0 AODV 48 [0 ffffffff 14 800] ------- [20:255 -1:255 28 0] [0x2 3 1 [0 0] [1 4]] (REQUEST)
r 1.015036883 _54_ RTR  --- 0 AODV 48 [0 ffffffff 14 800] ------- [20:255 -1:255 28 0] [0x2 3 1 [0 0] [1 4]] (REQUEST)
r 1.015036907 _30_ RTR  --- 0 AODV 48 [0 ffffffff 14 800] ------- [20:255 -1:255 28 0] [0x2 3 1 [0 0] [1 4]] (REQUEST)
r 1.015036922 _45_ RTR  --- 0 AODV 48 [0 ffffffff 14 800] ------- [20:255 -1:255 28 0] [0x2 3 1 [0 0] [1 4]] (REQUEST)
r 1.015036943 _24_ RTR  --- 0 AODV 48 [0 ffffffff 14 800] ------- [20:255 -1:255 28 0] [0x2 3 1 [0 0] [1 4]] (REQUEST)
r 1.015036973 _37_ RTR  --- 0 AODV 48 [0 ffffffff 14 800] ------- [20:255 -1:255 28 0] [0x2 3 1 [0 0] [1 4]] (REQUEST)
r 1.015037078 _63_ RTR  --- 0 AODV 48 [0 ffffffff 14 800] ------- [20:255 -1:255 28 0] [0x2 3 1 [0 0] [1 4]] (REQUEST)
r 1.015290798 _60_ RTR  --- 0 AODV 48 [0 ffffffff 3 800] ------- [3:255 -1:255 28 0] [0x2 3 1 [0 0] [1 4]] (REQUEST)
r 1.015291086 _27_ RTR  --- 0 AODV 48 [0 ffffffff 3 800] ------- [3:255 -1:255 28 0] [0x2 3 1 [0 0] [1 4]] (REQUEST)
r 1.015291147 _23_ RTR  --- 0 AODV 48 [0 ffffffff 3 800] ------- [3:255 -1:255 28 0] [0x2 3 1 [0 0] [1 4]] (REQUEST)
r 1.015291189 _64_ RTR  --- 0 AODV 48 [0 ffffffff 3 800] ------- [3:255 -1:255 28 0] [0x2 3 1 [0 0] [1 4]] (REQUEST)
r 1.015291220 _58_ RTR  --- 0 AODV 48 [0 ffffffff 3 800] ------- [3:255 -1:255 28 0] [0x2 3 1 [0 0] [1 4]] (REQUEST)
r 1.015291344 _34_ RTR  --- 0 AODV 48 [0 ffffffff 3 800] ------- [3:255 -1:255 28 0] [0x2 3 1 [0 0] [1 4]] (REQUEST)
r 1.015291354 _19_ RTR  --- 0 AODV 48 [0 ffffffff 3 800] ------- [3:255 -1:255 28 0] [0x2 3 1 [0 0] [1 4]] (REQUEST)
r 1.015291357 _16_ RTR  --- 0 AODV 48 [0 ffffffff 3 800] ------- [3:255 -1:255 28 0] [0x2 3 1 [0 0] [1 4]] (REQUEST)
r 1.015291359 _78_ RTR  --- 0 AODV 48 [0 ffffffff 3 800] ------- [3:255 -1:255 28 0] [0x2 3 1 [0 0] [1 4]] (REQUEST)
r 1.015291369 _7_ RTR  --- 0 AODV 48 [0 ffffffff 3 800] ------- [3:255 -1:255 28 0] [0x2 3 1 [0 0] [1 4]] (REQUEST)
r 1.015291476 _56_ RTR  --- 0 AODV 48 [0 ffffffff 3 800] ------- [3:255 -1:255 28 0] [0x2 3 1 [0 0] [1 4]] (REQUEST)
r 1.015291605 _76_ RTR  --- 0 AODV 48 [0 ffffffff 3 800] ------- [3:255 -1:255 28 0] [0x2 3 1 [0 0] [1 4]] (REQUEST)