s 1.000000000 _1_ AGT  --- 0 cbr 1000 [0 0 0 0] ------- [1:0 0:0 32 0] [0] 0 0
r 1.000000000 _1_ RTR  --- 0 cbr 1000 [0 0 0 0] ------- [1:0 0:0 32 0] [0] 0 0
s 1.000000000 _1_ AGT  --- 1 cbr 24 [0 0 0 0] ------- [1:0 0:0 32 0] [1] 0 0
r 1.000000000 _1_ RTR  --- 1 cbr 24 [0 0 0 0] ------- [1:0 0:0 32 0] [1] 0 0
s 1.000000000 _1_ RTR  --- 0 AODV 48 [0 0 0 0] ------- [1:255 -1:255 30 0] [0x2 1 1 [0 0] [1 4]] (REQUEST)
r 1.001408410 _8_ RTR  --- 0 AODV 48 [0 ffffffff 1 800] ------- [1:255 -1:255 30 0] [0x2 1 1 [0 0] [1 4]] (REQUEST)
r 1.001408432 _48_ RTR  --- 0 AODV 48 [0 ffffffff 1 800] ------- [1:255 -1:255 30 0] [0x2 1 1 [0 0] [1 4]] (REQUEST)
r 1.001408445 _35_ RTR  --- 0 AODV 48 [0 ffffffff 1 800] ------- [1:255 -1:255 30 0] [0x2 1 1 [0 0] [1 4]] (REQUEST)
r 1.001408454 _18_ RTR  --- 0 AODV 48 [0 ffffffff 1 800] ------- [1:255 -1:255 30 0] [0x2 1 1 [0 0] [1 4]] (REQUEST)
r 1.001408523 _6_ RTR  --- 0 AODV 48 [0 ffffffff 1 800] ------- [1:255 -1:255 30 0] [0x2 1 1 [0 0] [1 4]] (REQUEST)
r 1.001408567 _51_ RTR  --- 0 AODV 48 [0 ffffffff 1 800] ------- [1:255 -1:255 30 0] [0x2 1 1 [0 0] [1 4]] (REQUEST)
r 1.001408609 _5_ RTR  --- 0 AODV 48 [0 ffffffff 1 800] ------- [1:255 -1:255 30 0] [0x2 1 1 [0 0] [1 4]] (REQUEST)
r 1.001408609 _50_ RTR  --- 0 AODV 48 [0 ffffffff 1 800] ------- [1:255 -1:255 30 0] [0x2 1 1 [0 0] [1 4]] (REQUEST)
r 1.001408662 _49_ RTR  --- 0 AODV 48 [0 ffffffff 1 800] ------- [1:255 -1:255 30 0] [0x2 1 1 [0 0] [1 4]] (REQUEST)
r 1.001408682 _61_ RTR  --- 0 AODV 48 [0 ffffffff 1 800] ------- [1:255 -1:255 30 0] [0x2 1 1 [0 0] [1 4]] (REQUEST)
r 1.001408710 _38_ RTR  --- 0 AODV 48 [0 ffffffff 1 800] ------- [1:255 -1:255 30 0] [0x2 1 1 [0 0] [1 4]] (REQUEST)
r 1.001408735 _3_ RTR  --- 0 AODV 48 [0 ffffffff 1 800] ------- [1:255 -1:255 30 0] [0x2 1 1 [0 0] [1 4]] (REQUEST)
s 1.001550457 _8_ RTR  --- 0 AODV 48 [0 ffffffff 1 800] ------- [8:255 -1:255 29 0] [0x2 2 1 [0 0] [1 4]] (REQUEST)
s 1.001836681 _3_ RTR  --- 0 AODV 48 [0 ffffffff 1 800] ------- [3:255 -1:255 29 0] [0x2 2 1 [0 0] [1 4]] (REQUEST)
s 1.002289659 _48_ RTR  --- 0 AODV 48 [0 ffffffff 1 800] ------- [48:255 -1:255 29 0] [0x2 2 1 [0 0] [1 4]] (REQUEST)
r 1.002658602 _6_ RTR  --- 0 AODV 48 [0 ffffffff 8 800] ------- [8:255 -1:255 29 0] [0x2 2 1 [0 0] [1 4]] (REQUEST)
r 1.002658867 _1_ RTR  --- 0 AODV 48 [0 ffffffff 8 800] ------- [8:255 -1:255 29 0] [0x2 2 1 [0 0] [1 4]] (REQUEST)
r 1.002658934 _3_ RTR  --- 0 AODV 48 [0 ffffffff 8 800] ------- [8:255 -1:255 29 0] [0x2 2 1 [0 0] [1 4]] (REQUEST)
r 1.002659021 _49_ RTR  --- 0 AODV 48 [0 ffffffff 8 800] ------- [8:255 -1:255 29 0] [0x2 2 1 [0 0] [1 4]] (REQUEST)
r 1.002659055 _46_ RTR  --- 0 AODV 48 [0 ffffffff 8 800] ------- [8:255 -1:255 29 0] [0x2 2 1 [0 0] [1 4]] (REQUEST)
r 1.002659056 _30_ RTR  --- 0 AODV 48 [0 ffffffff 8 800] ------- [8:255 -1:255 29 0] [0x2 2 1 [0 0] [1 4]] (REQUEST)
r 1.002659066 _29_ RTR  --- 0 AODV 48 [0 ffffffff 8 800] ------- [8:255 -1:255 29 0] [0x2 2 1 [0 0] [1 4]] (REQUEST)
r 1.002659100 _18_ RTR  --- 0 AODV 48 [0 ffffffff 8 800] ------- [8:255 -1:255 29 0] [0x2 2 1 [0 0] [1 4]] (REQUEST)
r 1.002659104 _15_ RTR  --- 0 AODV 48 [0 ffffffff 8 800] ------- [8:255 -1:255 29 0] [0x2 2 1 [0 0] [1 4]] (REQUEST)
r 1.002659117 _51_ RTR  --- 0 AODV 48 [0 ffffffff 8 800] ------- [8:255 -1:255 29 0] [0x2 2 1 [0 0] [1 4]] (REQUEST)
r 1.002659120 _0_ RTR  --- 0 AODV 48 [0 ffffffff 8 800] ------- [8:255 -1:255 29 0] [0x2 2 1 [0 0] [1 4]] (REQUEST)
s 1.002659120 _0_ RTR  --- 0 AODV 44 [0 0 0 0] ------- [0:255 1:255 30 8] [0x4 1 [0 4] 10.000000] (REPLY)
r 1.002659142 _39_ RTR  --- 0 AODV 48 [0 ffffffff 8 800] ------- [8:255 -1:255 29 0] [0x2 2 1 [0 0] [1 4]] (REQUEST)
r 1.002659204 _63_ RTR  --- 0 AODV 48 [0 ffffffff 8 800] ------- [8:255 -1:255 29 0] [0x2 2 1 [0 0] [1 4]] (REQUEST)
r 1.002659225 _48_ RTR  --- 0 AODV 48 [0 ffffffff 8 800] ------- [8:255 -1:255 29 0] [0x2 2 1 [0 0] [1 4]] (REQUEST)
r 1.002659233 _2_ RTR  --- 0 AODV 48 [0 ffffffff 8 800] ------- [8:255 -1:255 29 0] [0x2 2 1 [0 0] [1 4]] (REQUEST)
r 1.002659264 _16_ RTR  --- 0 AODV 48 [0 ffffffff 8 800] ------- [8:255 -1:255 29 0] [0x2 2 1 [0 0] [1 4]] (REQUEST)
s 1.003050164 _38_ RTR  --- 0 AODV 48 [0 ffffffff 1 800] ------- [38:255 -1:255 29 0] [0x2 2 1 [0 0] [1 4]] (REQUEST)
s 1.003600444 _30_ RTR  --- 0 AODV 48 [0 ffffffff 8 800] ------- [30:255 -1:255 28 0] [0x2 3 1 [0 0] [1 4]] (REQUEST)
s 1.003754626 _5_ RTR  --- 0 AODV 48 [0 ffffffff 1 800] ------- [5:255 -1:255 29 0] [0x2 2 1 [0 0] [1 4]] (REQUEST)
s 1.004407107 _46_ RTR  --- 0 AODV 48 [0 ffffffff 8 800] ------- [46:255 -1:255 28 0] [0x2 3 1 [0 0] [1 4]] (REQUEST)
s 1.004499452 _49_ RTR  --- 0 AODV 48 [0 ffffffff 1 800] ------- [49:255 -1:255 29 0] [0x2 2 1 [0 0] [1 4]] (REQUEST)
s 1.004538140 _6_ RTR  --- 0 AODV 48 [0 ffffffff 1 800] ------- [6:255 -1:255 29 0] [0x2 2 1 [0 0] [1 4]] (REQUEST)
r 1.004665774 _29_ RTR  --- 0 AODV 48 [0 ffffffff 3 800] ------- [3:255 -1:255 29 0] [0x2 2 1 [0 0] [1 4]] (REQUEST)
r 1.004665791 _49_ RTR  --- 0 AODV 48 [0 ffffffff 3 800] ------- [3:255 -1:255 29 0] [0x2 2 1 [0 0] [1 4]] (REQUEST)
r 1.004665876 _6_ RTR  --- 0 AODV 48 [0 ffffffff 3 800] ------- [3:255 -1:255 29 0] [0x2 2 1 [0 0] [1 4]] (REQUEST)
r 1.004665892 _63_ RTR  --- 0 AODV 48 [0 ffffffff 3 800] ------- [3:255 -1:255 29 0] [0x2 2 1 [0 0] [1 4]] (REQUEST)
r 1.004665937 _0_ RTR  --- 0 AODV 48 [0 ffffffff 3 800] ------- [3:255 -1:255 29 0] [0x2 2 1 [0 0] [1 4]] (REQUEST)
r 1.004665977 _4_ RTR  --- 0 AODV 48 [0 ffffffff 3 800] ------- [3:255 -1:255 29 0] [0x2 2 1 [0 0] [1 4]] (REQUEST)
r 1.004666005 _8_ RTR  --- 0 AODV 48 [0 ffffffff 3 800] ------- [3:255 -1:255 29 0] [0x2 2 1 [0 0] [1 4]] (REQUEST)
r 1.004666035 _10_ RTR  --- 0 AODV 48 [0 ffffffff 3 800] ------- [3:255 -1:255 29 0] [0x2 2 1 [0 0] [1 4]] (REQUEST)
r 1.004666062 _51_ RTR  --- 0 AODV 48 [0 ffffffff 3 800] ------- [3:255 -1:255 29 0] [0x2 2 1 [0 0] [1 4]] (REQUEST)
r 1.004666096 _52_ RTR  --- 0 AODV 48 [0 ffffffff 3 800] ------- [3:255 -1:255 29 0] [0x2 2 1 [0 0] [1 4]] (REQUEST)
r 1.004666133 _46_ RTR  --- 0 AODV 48 [0 ffffffff 3 800] ------- [3:255 -1:255 29 0] [0x2 2 1 [0 0] [1 4]] (REQUEST)
r 1.004666258 _40_ RTR  --- 0 AODV 48 [0 ffffffff 3 800] ------- [3:255 -1:255 29 0] [0x2 2 1 [0 0] [1 4]] (REQUEST)
r 1.004666264 _1_ RTR  --- 0 AODV 48 [0 ffffffff 3 800] ------- [3:255 -1:255 29 0] [0x2 2 1 [0 0] [1 4]] (REQUEST)
r 1.004666293 _39_ RTR  --- 0 AODV 48 [0 ffffffff 3 800] ------- [3:255 -1:255 29 0] [0x2 2 1 [0 0] [1 4]] (REQUEST)
r 1.004666294 _2_ RTR  --- 0 AODV 48 [0 ffffffff 3 800] ------- [3:255 -1:255 29 0] [0x2 2 1 [0 0] [1 4]] (REQUEST)
r 1.004666295 _12_ RTR  --- 0 AODV 48 [0 ffffffff 3 800] ------- [3:255 -1:255 29 0] [0x2 2 1 [0 0] [1 4]] (REQUEST)
r 1.004666323 _30_ RTR  --- 0 AODV 48 [0 ffffffff 3 800] ------- [3:255 -1:255 29 0] [0x2 2 1 [0 0] [1 4]] (REQUEST)
s 1.005240021 _39_ RTR  --- 0 AODV 48 [0 ffffffff 8 800] ------- [39:255 -1:255 28 0] [0x2 3 1 [0 0] [1 4]] (REQUEST)
r 1.005704021 _8_ RTR  --- 0 AODV 48 [0 ffffffff 6 800] ------- [6:255 -1:255 29 0] [0x2 2 1 [0 0] [1 4]] (REQUEST)
r 1.005704224 _3_ RTR  --- 0 AODV 48 [0 ffffffff 6 800] ------- [6:255 -1:255 29 0] [0x2 2 1 [0 0] [1 4]] (REQUEST)
r 1.005704340 _29_ RTR  --- 0 AODV 48 [0 ffffffff 6 800] ------- [6:255 -1:255 29 0] [0x2 2 1 [0 0] [1 4]] (REQUEST)
r 1.005704361 _49_ RTR  --- 0 AODV 48 [0 ffffffff 6 800] ------- [6:255 -1:255 29 0] [0x2 2 1 [0 0] [1 4]] (REQUEST)
r 1.005704381 _46_ RTR  --- 0 AODV 48 [0 ffffffff 6 800] ------- [6:255 -1:255 29 0] [0x2 2 1 [0 0] [1 4]] (REQUEST)
r 1.005704399 _1_ RTR  --- 0 AODV 48 [0 ffffffff 6 800] ------- [6:255 -1:255 29 0] [0x2 2 1 [0 0] [1 4]] (REQUEST)
r 1.005704399 _0_ RTR  --- 0 AODV 48 [0 ffffffff 6 800] ------- [6:255 -1:255 29 0] [0x2 2 1 [0 0] [1 4]] (REQUEST)
r 1.005704446 _30_ RTR  --- 0 AODV 48 [0 ffffffff 6 800] ------- [6:255 -1:255 29 0] [0x2 2 1 [0 0] [1 4]] (REQUEST)
r 1.005704495 _39_ RTR  --- 0 AODV 48 [0 ffffffff 6 800] ------- [6:255 -1:255 29 0] [0x2 2 1 [0 0] [1 4]] (REQUEST)
r 1.005704516 _51_ RTR  --- 0 AODV 48 [0 ffffffff 6 800] ------- [6:255 -1:255 29 0] [0x2 2 1 [0 0] [1 4]] (REQUEST)
r 1.005704524 _15_ RTR  --- 0 AODV 48 [0 ffffffff 6 800] ------- [6:255 -1:255 29 0] [0x2 2 1 [0 0] [1 4]] (REQUEST)
r 1.005704531 _63_ RTR  --- 0 AODV 48 [0 ffffffff 6 800] ------- [6:255 -1:255 29 0] [0x2 2 1 [0 0] [1 4]] (REQUEST)
r 1.005704563 _2_ RTR  --- 0 AODV 48 [0 ffffffff 6 800] ------- [6:255 -1:255 29 0] [0x2 2 1 [0 0] [1 4]] (REQUEST)
r 1.005704618 _4_ RTR  --- 0 AODV 48 [0 ffffffff 6 800] ------- [6:255 -1:255 29 0] [0x2 2 1 [0 0] [1 4]] (REQUEST)
r 1.005704641 _52_ RTR  --- 0 AODV 48 [0 ffffffff 6 800] ------- [6:255 -1:255 29 0] [0x2 2 1 [0 0] [1 4]] (REQUEST)
r 1.005704665 _18_ RTR  --- 0 AODV 48 [0 ffffffff 6 800] ------- [6:255 -1:255 29 0] [0x2 2 1 [0 0] [1 4]] (REQUEST)
r 1.005704670 _10_ RTR  --- 0 AODV 48 [0 ffffffff 6 800] ------- [6:255 -1:255 29 0] [0x2 2 1 [0 0] [1 4]] (REQUEST)
r 1.005704704 _48_ RTR  --- 0 AODV 48 [0 ffffffff 6 800] ------- [6:255 -1:255 29 0] [0x2 2 1 [0 0] [1 4]] (REQUEST)
s 1.005757962 _4_ RTR  --- 0 AODV 48 [0 ffffffff 3 800] ------- [4:255 -1:255 28 0] [0x2 3 1 [0 0] [1 4]] (REQUEST)
s 1.005820179 _35_ RTR  --- 0 AODV 48 [0 ffffffff 1 800] ------- [35:255 -1:255 29 0] [0x2 2 1 [0 0] [1 4]] (REQUEST)
s 1.006146514 _15_ RTR  --- 0 AODV 48 [0 ffffffff 8 800] ------- [15:255 -1:255 28 0] [0x2 3 1 [0 0] [1 4]] (REQUEST)
s 1.006539748 _52_ RTR  --- 0 AODV 48 [0 ffffffff 3 800] ------- [52:255 -1:255 28 0] [0x2 3 1 [0 0] [1 4]] (REQUEST)
r 1.006642881 _5_ RTR  --- 0 AODV 48 [0 ffffffff 30 800] ------- [48:255 -1:255 29 0] [0x2 2 1 [0 0] [1 4]] (REQUEST)
r 1.006642936 _35_ RTR  --- 0 AODV 48 [0 ffffffff 30 800] ------- [48:255 -1:255 29 0] [0x2 2 1 [0 0] [1 4]] (REQUEST)
r 1.006643129 _51_ RTR  --- 0 AODV 48 [0 ffffffff 30 800] ------- [48:255 -1:255 29 0] [0x2 2 1 [0 0] [1 4]] (REQUEST)
r 1.006643136 _1_ RTR  --- 0 AODV 48 [0 ffffffff 30 800] ------- [48:255 -1:255 29 0] [0x2 2 1 [0 0] [1 4]] (REQUEST)
r 1.006643192 _38_ RTR  --- 0 AODV 48 [0 ffffffff 30 800] ------- [48:255 -1:255 29 0] [0x2 2 1 [0 0] [1 4]] (REQUEST)
r 1.006643212 _50_ RTR  --- 0 AODV 48 [0 ffffffff 30 800] ------- [48:255 -1:255 29 0] [0x2 2 1 [0 0] [1 4]] (REQUEST)
r 1.006643311 _45_ RTR  --- 0 AODV 48 [0 ffffffff 30 800] ------- [48:255 -1:255 29 0] [0x2 2 1 [0 0] [1 4]] (REQUEST)
r 1.006643383 _49_ RTR  --- 0 AODV 48 [0 ffffffff 30 800] ------- [48:255 -1:255 29 0] [0x2 2 1 [0 0] [1 4]] (REQUEST)
r 1.006643472 _8_ RTR  --- 0 AODV 48 [0 ffffffff 30 800] ------- [48:255 -1:255 29 0] [0x2 2 1 [0 0] [1 4]] (REQUEST)
r 1.006643495 _63_ RTR  --- 0 AODV 48 [0 ffffffff 30 800] ------- [48:255 -1:255 29 0] [0x2 2 1 [0 0] [1 4]] (REQUEST)
r 1.006643513 _40_ RTR  --- 0 AODV 48 [0 ffffffff 30 800] ------- [48:255 -1:255 29 0] [0x2 2 1 [0 0] [1 4]] (REQUEST)
r 1.006643516 _18_ RTR  --- 0 AODV 48 [0 ffffffff 30 800] ------- [48:255 -1:255 29 0] [0x2 2 1 [0 0] [1 4]] (REQUEST)
r 1.006643531 _6_ RTR  --- 0 AODV 48 [0 ffffffff 30 800] ------- [48:255 -1:255 29 0] [0x2 2 1 [0 0] [1 4]] (REQUEST)
s 1.006746060 _63_ RTR  --- 0 AODV 48 [0 ffffffff 8 800] ------- [63:255 -1:255 28 0] [0x2 3 1 [0 0] [1 4]] (REQUEST)
s 1.007320424 _16_ RTR  --- 0 AODV 48 [0 ffffffff 8 800] ------- [16:255 -1:255 28 0] [0x2 3 1 [0 0] [1 4]] (REQUEST)
r 1.007581057 _48_ RTR  --- 0 AODV 48 [0 ffffffff 5 800] ------- [5:255 -1:255 29 0] [0x2 2 1 [0 0] [1 4]] (REQUEST)
r 1.007581214 _35_ RTR  --- 0 AODV 48 [0 ffffffff 5 800] ------- [5:255 -1:255 29 0] [0x2 2 1 [0 0] [1 4]] (REQUEST)
r 1.007581344 _51_ RTR  --- 0 AODV 48 [0 ffffffff 5 800] ------- [5:255 -1:255 29 0] [0x2 2 1 [0 0] [1 4]] (REQUEST)
r 1.007581386 _38_ RTR  --- 0 AODV 48 [0 ffffffff 5 800] ------- [5:255 -1:255 29 0] [0x2 2 1 [0 0] [1 4]] (REQUEST)
r 1.007581463 _50_ RTR  --- 0 AODV 48 [0 ffffffff 5 800] ------- [5:255 -1:255 29 0] [0x2 2 1 [0 0] [1 4]] (REQUEST)
r 1.007581484 _45_ RTR  --- 0 AODV 48 [0 ffffffff 5 800] ------- [5:255 -1:255 29 0] [0x2 2 1 [0 0] [1 4]] (REQUEST)
r 1.007581489 _1_ RTR  --- 0 AODV 48 [0 ffffffff 5 800] ------- [5:255 -1:255 29 0] [0x2 2 1 [0 0] [1 4]] (REQUEST)
r 1.007581625 _49_ RTR  --- 0 AODV 48 [0 ffffffff 5 800] ------- [5:255 -1:255 29 0] [0x2 2 1 [0 0] [1 4]] (REQUEST)
r 1.007581637 _40_ RTR  --- 0 AODV 48 [0 ffffffff 5 800] ------- [5:255 -1:255 29 0] [0x2 2 1 [0 0] [1 4]] (REQUEST)
r 1.007581701 _63_ RTR  --- 0 AODV 48 [0 ffffffff 5 800] ------- [5:255 -1:255 29 0] [0x2 2 1 [0 0] [1 4]] (REQUEST)
s 1.007797261 _50_ RTR  --- 0 AODV 48 [0 ffffffff 1 800] ------- [50:255 -1:255 29 0] [0x2 2 1 [0 0] [1 4]] (REQUEST)
s 1.007845721 _2_ RTR  --- 0 AODV 48 [0 ffffffff 8 800] ------- [2:255 -1:255 28 0] [0x2 3 1 [0 0] [1 4]] (REQUEST)
r 1.008559447 _48_ RTR  --- 0 AODV 48 [0 ffffffff 23 800] ------- [35:255 -1:255 29 0] [0x2 2 1 [0 0] [1 4]] (REQUEST)
r 1.008559491 _50_ RTR  --- 0 AODV 48 [0 ffffffff 23 800] ------- [35:255 -1:255 29 0] [0x2 2 1 [0 0] [1 4]] (REQUEST)
r 1.008559503 _38_ RTR  --- 0 AODV 48 [0 ffffffff 23 800] ------- [35:255 -1:255 29 0] [0x2 2 1 [0 0] [1 4]] (REQUEST)
r 1.008559548 _5_ RTR  --- 0 AODV 48 [0 ffffffff 23 800] ------- [35:255 -1:255 29 0] [0x2 2 1 [0 0] [1 4]] (REQUEST)
r 1.008559631 _45_ RTR  --- 0 AODV 48 [0 ffffffff 23 800] ------- [35:255 -1:255 29 0] [0x2 2 1 [0 0] [1 4]] (REQUEST)
r 1.008559659 _1_ RTR  --- 0 AODV 48 [0 ffffffff 23 800] ------- [35:255 -1:255 29 0] [0x2 2 1 [0 0] [1 4]] (REQUEST)
r 1.008559863 _51_ RTR  --- 0 AODV 48 [0 ffffffff 23 800] ------- [35:255 -1:255 29 0] [0x2 2 1 [0 0] [1 4]] (REQUEST)
r 1.008559913 _18_ RTR  --- 0 AODV 48 [0 ffffffff 23 800] ------- [35:255 -1:255 29 0] [0x2 2 1 [0 0] [1 4]] (REQUEST)
r 1.008560025 _61_ RTR  --- 0 AODV 48 [0 ffffffff 23 800] ------- [35:255 -1:255 29 0] [0x2 2 1 [0 0] [1 4]] (REQUEST)
s 1.008708110 _10_ RTR  --- 0 AODV 48 [0 ffffffff 3 800] ------- [10:255 -1:255 28 0] [0x2 3 1 [0 0] [1 4]] (REQUEST)
s 1.009400009 _18_ RTR  --- 0 AODV 48 [0 ffffffff 1 800] ------- [18:255 -1:255 29 0] [0x2 2 1 [0 0] [1 4]] (REQUEST)
s 1.009573328 _51_ RTR  --- 0 AODV 48 [0 ffffffff 1 800] ------- [51:255 -1:255 29 0] [0x2 2 1 [0 0] [1 4]] (REQUEST)
r 1.009677669 _38_ RTR  --- 0 AODV 48 [0 ffffffff 32 800] ------- [50:255 -1:255 29 0] [0x2 2 1 [0 0] [1 4]] (REQUEST)
r 1.009677756 _45_ RTR  --- 0 AODV 48 [0 ffffffff 32 800] ------- [50:255 -1:255 29 0] [0x2 2 1 [0 0] [1 4]] (REQUEST)
r 1.009677768 _35_ RTR  --- 0 AODV 48 [0 ffffffff 32 800] ------- [50:255 -1:255 29 0] [0x2 2 1 [0 0] [1 4]] (REQUEST)
r 1.009678000 _48_ RTR  --- 0 AODV 48 [0 ffffffff 32 800] ------- [50:255 -1:255 29 0] [0x2 2 1 [0 0] [1 4]] (REQUEST)
r 1.009678073 _5_ RTR  --- 0 AODV 48 [0 ffffffff 32 800] ------- [50:255 -1:255 29 0] [0x2 2 1 [0 0] [1 4]] (REQUEST)
r 1.009678100 _1_ RTR  --- 0 AODV 48 [0 ffffffff 32 800] ------- [50:255 -1:255 29 0] [0x2 2 1 [0 0] [1 4]] (REQUEST)
r 1.009678166 _18_ RTR  --- 0 AODV 48 [0 ffffffff 32 800] ------- [50:255 -1:255 29 0] [0x2 2 1 [0 0] [1 4]] (REQUEST)
r 1.009678184 _61_ RTR  --- 0 AODV 48 [0 ffffffff 32 800] ------- [50:255 -1:255 29 0] [0x2 2 1 [0 0] [1 4]] (REQUEST)
s 1.009771917 _61_ RTR  --- 0 AODV 48 [0 ffffffff 1 800] ------- [61:255 -1:255 29 0] [0x2 2 1 [0 0] [1 4]] (REQUEST)
r 1.010323132 _12_ RTR  --- 0 AODV 48 [0 ffffffff 34 800] ------- [52:255 -1:255 28 0] [0x2 3 1 [0 0] [1 4]] (REQUEST)
r 1.010323295 _43_ RTR  --- 0 AODV 48 [0 ffffffff 34 800] ------- [52:255 -1:255 28 0] [0x2 3 1 [0 0] [1 4]] (REQUEST)
r 1.010323434 _13_ RTR  --- 0 AODV 48 [0 ffffffff 34 800] ------- [52:255 -1:255 28 0] [0x2 3 1 [0 0] [1 4]] (REQUEST)
r 1.010323466 _59_ RTR  --- 0 AODV 48 [0 ffffffff 34 800] ------- [52:255 -1:255 28 0] [0x2 3 1 [0 0] [1 4]] (REQUEST)
r 1.010323490 _23_ RTR  --- 0 AODV 48 [0 ffffffff 34 800] ------- [52:255 -1:255 28 0] [0x2 3 1 [0 0] [1 4]] (REQUEST)
r 1.010323528 _11_ RTR  --- 0 AODV 48 [0 ffffffff 34 800] ------- [52:255 -1:255 28 0] [0x2 3 1 [0 0] [1 4]] (REQUEST)
r 1.010323626 _33_ RTR  --- 0 AODV 48 [0 ffffffff 34 800] ------- [52:255 -1:255 28 0] [0x2 3 1 [0 0] [1 4]] (REQUEST)
r 1.010323658 _19_ RTR  --- 0 AODV 48 [0 ffffffff 34 800] ------- [52:255 -1:255 28 0] [0x2 3 1 [0 0] [1 4]] (REQUEST)
s 1.010729352 _29_ RTR  --- 0 AODV 48 [0 ffffffff 8 800] ------- [29:255 -1:255 28 0] [0x2 3 1 [0 0] [1 4]] (REQUEST)
r 1.010815798 _45_ RTR  --- 0 AODV 48 [0 ffffffff 26 800] ------- [38:255 -1:255 29 0] [0x2 2 1 [0 0] [1 4]] (REQUEST)
r 1.010815848 _50_ RTR  --- 0 AODV 48 [0 ffffffff 26 800] ------- [38:255 -1:255 29 0] [0x2 2 1 [0 0] [1 4]] (REQUEST)
r 1.010815958 _35_ RTR  --- 0 AODV 48 [0 ffffffff 26 800] ------- [38:255 -1:255 29 0] [0x2 2 1 [0 0] [1 4]] (REQUEST)
r 1.010816157 _48_ RTR  --- 0 AODV 48 [0 ffffffff 26 800] ------- [38:255 -1:255 29 0] [0x2 2 1 [0 0] [1 4]] (REQUEST)
r 1.010816175 _5_ RTR  --- 0 AODV 48 [0 ffffffff 26 800] ------- [38:255 -1:255 29 0] [0x2 2 1 [0 0] [1 4]] (REQUEST)
r 1.010816379 _1_ RTR  --- 0 AODV 48 [0 ffffffff 26 800] ------- [38:255 -1:255 29 0] [0x2 2 1 [0 0] [1 4]] (REQUEST)
s 1.011237195 _33_ RTR  --- 0 AODV 48 [0 ffffffff 34 800] ------- [33:255 -1:255 27 0] [0x2 4 1 [0 0] [1 4]] (REQUEST)
r 1.011905548 _39_ RTR  --- 0 AODV 48 [0 ffffffff 2 800] ------- [2:255 -1:255 28 0] [0x2 3 1 [0 0] [1 4]] (REQUEST)
r 1.011905580 _46_ RTR  --- 0 AODV 48 [0 ffffffff 2 800] ------- [2:255 -1:255 28 0] [0x2 3 1 [0 0] [1 4]] (REQUEST)
r 1.011905674 _59_ RTR  --- 0 AODV 48 [0 ffffffff 2 800] ------- [2:255 -1:255 28 0] [0x2 3 1 [0 0] [1 4]] (REQUEST)
r 1.011905678 _43_ RTR  --- 0 AODV 48 [0 ffffffff 2 800] ------- [2:255 -1:255 28 0] [0x2 3 1 [0 0] [1 4]] (REQUEST)
r 1.011905730 _30_ RTR  --- 0 AODV 48 [0 ffffffff 2 800] ------- [2:255 -1:255 28 0] [0x2 3 1 [0 0] [1 4]] (REQUEST)
r 1.011905765 _12_ RTR  --- 0 AODV 48 [0 ffffffff 2 800] ------- [2:255 -1:255 28 0] [0x2 3 1 [0 0] [1 4]] (REQUEST)
r 1.011905799 _56_ RTR  --- 0 AODV 48 [0 ffffffff 2 800] ------- [2:255 -1:255 28 0] [0x2 3 1 [0 0] [1 4]] (REQUEST)
r 1.011905820 _0_ RTR  --- 0 AODV 48 [0 ffffffff 2 800] ------- [2:255 -1:255 28 0] [0x2 3 1 [0 0] [1 4]] (REQUEST)
r 1.011905856 _15_ RTR  --- 0 AODV 48 [0 ffffffff 2 800] ------- [2:255 -1:255 28 0] [0x2 3 1 [0 0] [1 4]] (REQUEST)
r 1.011905961 _52_ RTR  --- 0 AODV 48 [0 ffffffff 2 800] ------- [2:255 -1:255 28 0] [0x2 3 1 [0 0] [1 4]] (REQUEST)
r 1.011905966 _13_ RTR  --- 0 AODV 48 [0 ffffffff 2 800] ------- [2:255 -1:255 28 0] [0x2 3 1 [0 0] [1 4]] (REQUEST)
r 1.011905987 _29_ RTR  --- 0 AODV 48 [0 ffffffff 2 800] ------- [2:255 -1:255 28 0] [0x2 3 1 [0 0] [1 4]] (REQUEST)
r 1.011906041 _17_ RTR  --- 0 AODV 48 [0 ffffffff 2 800] ------- [2:255 -1:255 28 0] [0x2 3 1 [0 0] [1 4]] (REQUEST)
r 1.011906084 _6_ RTR  --- 0 AODV 48 [0 ffffffff 2 800] ------- [2:255 -1:255 28 0] [0x2 3 1 [0 0] [1 4]] (REQUEST)
r 1.011906102 _7_ RTR  --- 0 AODV 48 [0 ffffffff 2 800] ------- [2:255 -1:255 28 0] [0x2 3 1 [0 0] [1 4]] (REQUEST)
r 1.011906163 _3_ RTR  --- 0 AODV 48 [0 ffffffff 2 800] ------- [2:255 -1:255 28 0] [0x2 3 1 [0 0] [1 4]] (REQUEST)
r 1.011906163 _4_ RTR  --- 0 AODV 48 [0 ffffffff 2 800] ------- [2:255 -1:255 28 0] [0x2 3 1 [0 0] [1 4]] (REQUEST)
r 1.011906173 _10_ RTR  --- 0 AODV 48 [0 ffffffff 2 800] ------- [2:255 -1:255 28 0] [0x2 3 1 [0 0] [1 4]] (REQUEST)
r 1.011906173 _8_ RTR  --- 0 AODV 48 [0 ffffffff 2 800] ------- [2:255 -1:255 28 0] [0x2 3 1 [0 0] [1 4]] (REQUEST)
s 1.012110768 _23_ RTR  --- 0 AODV 48 [0 ffffffff 34 800] ------- [23:255 -1:255 27 0] [0x2 4 1 [0 0] [1 4]] (REQUEST)
s 1.012390774 _13_ RTR  --- 0 AODV 48 [0 ffffffff 34 800] ------- [13:255 -1:255 27 0] [0x2 4 1 [0 0] [1 4]] (REQUEST)
s 1.012788042 _17_ RTR  --- 0 AODV 48 [0 ffffffff 2 800] ------- [17:255 -1:255 27 0] [0x2 4 1 [0 0] [1 4]] (REQUEST)
r 1.012864221 _10_ RTR  --- 0 AODV 48 [0 ffffffff 4 800] ------- [4:255 -1:255 28 0] [0x2 3 1 [0 0] [1 4]] (REQUEST)
r 1.012864418 _52_ RTR  --- 0 AODV 48 [0 ffffffff 4 800] ------- [4:255 -1:255 28 0] [0x2 3 1 [0 0] [1 4]] (REQUEST)
r 1.012864450 _29_ RTR  --- 0 AODV 48 [0 ffffffff 4 800] ------- [4:255 -1:255 28 0] [0x2 3 1 [0 0] [1 4]] (REQUEST)
r 1.012864525 _0_ RTR  --- 0 AODV 48 [0 ffffffff 4 800] ------- [4:255 -1:255 28 0] [0x2 3 1 [0 0] [1 4]] (REQUEST)
r 1.012864612 _3_ RTR  --- 0 AODV 48 [0 ffffffff 4 800] ------- [4:255 -1:255 28 0] [0x2 3 1 [0 0] [1 4]] (REQUEST)
r 1.012864715 _12_ RTR  --- 0 AODV 48 [0 ffffffff 4 800] ------- [4:255 -1:255 28 0] [0x2 3 1 [0 0] [1 4]] (REQUEST)
r 1.012864732 _33_ RTR  --- 0 AODV 48 [0 ffffffff 4 800] ------- [4:255 -1:255 28 0] [0x2 3 1 [0 0] [1 4]] (REQUEST)
r 1.012864736 _63_ RTR  --- 0 AODV 48 [0 ffffffff 4 800] ------- [4:255 -1:255 28 0] [0x2 3 1 [0 0] [1 4]] (REQUEST)
r 1.012864783 _49_ RTR  --- 0 AODV 48 [0 ffffffff 4 800] ------- [4:255 -1:255 28 0] [0x2 3 1 [0 0] [1 4]] (REQUEST)
r 1.012864847 _19_ RTR  --- 0 AODV 48 [0 ffffffff 4 800] ------- [4:255 -1:255 28 0] [0x2 3 1 [0 0] [1 4]] (REQUEST)
r 1.012864854 _46_ RTR  --- 0 AODV 48 [0 ffffffff 4 800] ------- [4:255 -1:255 28 0] [0x2 3 1 [0 0] [1 4]] (REQUEST)
r 1.012864874 _43_ RTR  --- 0 AODV 48 [0 ffffffff 4 800] ------- [4:255 -1:255 28 0] [0x2 3 1 [0 0] [1 4]] (REQUEST)
r 1.012864905 _6_ RTR  --- 0 AODV 48 [0 ffffffff 4 800] ------- [4:255 -1:255 28 0] [0x2 3 1 [0 0] [1 4]] (REQUEST)
r 1.012864929 _2_ RTR  --- 0 AODV 48 [0 ffffffff 4 800] ------- [4:255 -1:255 28 0] [0x2 3 1 [0 0] [1 4]] (REQUEST)
r 1.012864977 _23_ RTR  --- 0 AODV 48 [0 ffffffff 4 800] ------- [4:255 -1:255 28 0] [0x2 3 1 [0 0] [1 4]] (REQUEST)
r 1.012864982 _11_ RTR  --- 0 AODV 48 [0 ffffffff 4 800] ------- [4:255 -1:255 28 0] [0x2 3 1 [0 0] [1 4]] (REQUEST)
s 1.013329550 _45_ RTR  --- 0 AODV 48 [0 ffffffff 30 800] ------- [45:255 -1:255 28 0] [0x2 3 1 [0 0] [1 4]] (REQUEST)
s 1.013540693 _40_ RTR  --- 0 AODV 48 [0 ffffffff 3 800] ------- [40:255 -1:255 28 0] [0x2 3 1 [0 0] [1 4]] (REQUEST)
r 1.013822971 _63_ RTR  --- 0 AODV 48 [0 ffffffff 31 800] ------- [49:255 -1:255 29 0] [0x2 2 1 [0 0] [1 4]] (REQUEST)
r 1.013823020 _39_ RTR  --- 0 AODV 48 [0 ffffffff 2e 800] ------- [46:255 -1:255 28 0] [0x2 3 1 [0 0] [1 4]] (REQUEST)
r 1.013823036 _2_ RTR  --- 0 AODV 48 [0 ffffffff 2e 800] ------- [46:255 -1:255 28 0] [0x2 3 1 [0 0] [1 4]] (REQUEST)
r 1.013823046 _3_ RTR  --- 0 AODV 48 [0 ffffffff 31 800] ------- [49:255 -1:255 29 0] [0x2 2 1 [0 0] [1 4]] (REQUEST)
r 1.013823068 _51_ RTR  --- 0 AODV 48 [0 ffffffff 31 800] ------- [49:255 -1:255 29 0] [0x2 2 1 [0 0] [1 4]] (REQUEST)
r 1.013823093 _11_ RTR  --- 0 AODV 48 [0 ffffffff 17 800] ------- [23:255 -1:255 27 0] [0x2 4 1 [0 0] [1 4]] (REQUEST)
r 1.013823134 _30_ RTR  --- 0 AODV 48 [0 ffffffff 2e 800] ------- [46:255 -1:255 28 0] [0x2 3 1 [0 0] [1 4]] (REQUEST)
r 1.013823183 _0_ RTR  --- 0 AODV 48 [0 ffffffff 2e 800] ------- [46:255 -1:255 28 0] [0x2 3 1 [0 0] [1 4]] (REQUEST)
r 1.013823277 _15_ RTR  --- 0 AODV 48 [0 ffffffff 2e 800] ------- [46:255 -1:255 28 0] [0x2 3 1 [0 0] [1 4]] (REQUEST)
r 1.013823287 _40_ RTR  --- 0 AODV 48 [0 ffffffff 31 800] ------- [49:255 -1:255 29 0] [0x2 2 1 [0 0] [1 4]] (REQUEST)
r 1.013823309 _59_ RTR  --- 0 AODV 48 [0 ffffffff 2e 800] ------- [46:255 -1:255 28 0] [0x2 3 1 [0 0] [1 4]] (REQUEST)
r 1.013823383 _56_ RTR  --- 0 AODV 48 [0 ffffffff 2e 800] ------- [46:255 -1:255 28 0] [0x2 3 1 [0 0] [1 4]] (REQUEST)
r 1.013823411 _25_ RTR  --- 0 AODV 48 [0 ffffffff 17 800] ------- [23:255 -1:255 27 0] [0x2 4 1 [0 0] [1 4]] (REQUEST)
r 1.013823462 _48_ RTR  --- 0 AODV 48 [0 ffffffff 31 800] ------- [49:255 -1:255 29 0] [0x2 2 1 [0 0] [1 4]] (REQUEST)
r 1.013823527 _5_ RTR  --- 0 AODV 48 [0 ffffffff 31 800] ------- [49:255 -1:255 29 0] [0x2 2 1 [0 0] [1 4]] (REQUEST)
r 1.013823567 _7_ RTR  --- 0 AODV 48 [0 ffffffff 2e 800] ------- [46:255 -1:255 28 0] [0x2 3 1 [0 0] [1 4]] (REQUEST)
r 1.013823669 _54_ RTR  --- 0 AODV 48 [0 ffffffff 17 800] ------- [23:255 -1:255 27 0] [0x2 4 1 [0 0] [1 4]] (REQUEST)
r 1.013823716 _57_ RTR  --- 0 AODV 48 [0 ffffffff 17 800] ------- [23:255 -1:255 27 0] [0x2 4 1 [0 0] [1 4]] (REQUEST)
r 1.013823742 _20_ RTR  --- 0 AODV 48 [0 ffffffff 17 800] ------- [23:255 -1:255 27 0] [0x2 4 1 [0 0] [1 4]] (REQUEST)
s 1.014128945 _12_ RTR  --- 0 AODV 48 [0 ffffffff 3 800] ------- [12:255 -1:255 28 0] [0x2 3 1 [0 0] [1 4]] (REQUEST)
r 1.015106419 _15_ RTR  --- 0 AODV 48 [0 ffffffff 1e 800] ------- [30:255 -1:255 28 0] [0x2 3 1 [0 0] [1 4]] (REQUEST)
r 1.015106459 _39_ RTR  --- 0 AODV 48 [0 ffffffff 1e 800] ------- [30:255 -1:255 28 0] [0x2 3 1 [0 0] [1 4]] (REQUEST)
r 1.015106558 _46_ RTR  --- 0 AODV 48 [0 ffffffff 1e 800] ------- [30:255 -1:255 28 0] [0x2 3 1 [0 0] [1 4]] (REQUEST)
r 1.015106610 _2_ RTR  --- 0 AODV 48 [0 ffffffff 1e 800] ------- [30:255 -1:255 28 0] [0x2 3 1 [0 0] [1 4]] (REQUEST)
r 1.015106691 _56_ RTR  --- 0 AODV 48 [0 ffffffff 1e 800] ------- [30:255 -1:255 28 0] [0x2 3 1 [0 0] [1 4]] (REQUEST)
r 1.015106715 _7_ RTR  --- 0 AODV 48 [0 ffffffff 1e 800] ------- [30:255 -1:255 28 0] [0x2 3 1 [0 0] [1 4]] (REQUEST)
r 1.015106847 _6_ RTR  --- 0 AODV 48 [0 ffffffff 1e 800] ------- [30:255 -1:255 28 0] [0x2 3 1 [0 0] [1 4]] (REQUEST)
r 1.015106848 _59_ RTR  --- 0 AODV 48 [0 ffffffff 1e 800] ------- [30:255 -1:255 28 0] [0x2 3 1 [0 0] [1 4]] (REQUEST)
r 1.015106876 _8_ RTR  --- 0 AODV 48 [0 ffffffff 1e 800] ------- [30:255 -1:255 28 0] [0x2 3 1 [0 0] [1 4]] (REQUEST)
r 1.015106880 _0_ RTR  --- 0 AODV 48 [0 ffffffff 1e 800] ------- [30:255 -1:255 28 0] [0x2 3 1 [0 0] [1 4]] (REQUEST)
r 1.015106891 _43_ RTR  --- 0 AODV 48 [0 ffffffff 1e 800] ------- [30:255 -1:255 28 0] [0x2 3 1 [0 0] [1 4]] (REQUEST)
r 1.015106966 _12_ RTR  --- 0 AODV 48 [0 ffffffff 1e 800] ------- [30:255 -1:255 28 0] [0x2 3 1 [0 0] [1 4]] (REQUEST)
r 1.015106976 _60_ RTR  --- 0 AODV 48 [0 ffffffff 1e 800] ------- [30:255 -1:255 28 0] [0x2 3 1 [0 0] [1 4]] (REQUEST)
r 1.015106990 _29_ RTR  --- 0 AODV 48 [0 ffffffff 1e 800] ------- [30:255 -1:255 28 0] [0x2 3 1 [0 0] [1 4]] (REQUEST)
r 1.015107024 _42_ RTR  --- 0 AODV 48 [0 ffffffff 1e 800] ------- [30:255 -1:255 28 0] [0x2 3 1 [0 0] [1 4]] (REQUEST)
r 1.015107047 _9_ RTR  --- 0 AODV 48 [0 ffffffff 1e 800] ------- [30:255 -1:255 28 0] [0x2 3 1 [0 0] [1 4]] (REQUEST)
r 1.015107052 _16_ RTR  --- 0 AODV 48 [0 ffffffff 1e 800] ------- [30:255 -1:255 28 0] [0x2 3 1 [0 0] [1 4]] (REQUEST)
r 1.015107072 _3_ RTR  --- 0 AODV 48 [0 ffffffff 1e 800] ------- [30:255 -1:255 28 0] [0x2 3 1 [0 0] [1 4]] (REQUEST)
r 1.015107096 _52_ RTR  --- 0 AODV 48 [0 ffffffff 1e 800] ------- [30:255 -1:255 28 0] [0x2 3 1 [0 0] [1 4]] (REQUEST)
s 1.015108721 _60_ RTR  --- 0 AODV 48 [0 ffffffff 1e 800] ------- [60:255 -1:255 27 0] [0x2 4 1 [0 0] [1 4]] (REQUEST)
s 1.015240875 _19_ RTR  --- 0 AODV 48 [0 ffffffff 34 800] ------- [19:255 -1:255 27 0] [0x2 4 1 [0 0] [1 4]] (REQUEST)
s 1.015323600 _57_ RTR  --- 0 AODV 48 [0 ffffffff 17 800] ------- [57:255 -1:255 26 0] [0x2 5 1 [0 0] [1 4]] (REQUEST)
s 1.015941322 _42_ RTR  --- 0 AODV 48 [0 ffffffff 1e 800] ------- [42:255 -1:255 27 0] [0x2 4 1 [0 0] [1 4]] (REQUEST)
r 1.016084610 _2_ RTR  --- 0 AODV 48 [0 ffffffff 27 800] ------- [39:255 -1:255 28 0] [0x2 3 1 [0 0] [1 4]] (REQUEST)
r 1.016084625 _46_ RTR  --- 0 AODV 48 [0 ffffffff 27 800] ------- [39:255 -1:255 28 0] [0x2 3 1 [0 0] [1 4]] (REQUEST)
r 1.016084641 _30_ RTR  --- 0 AODV 48 [0 ffffffff 27 800] ------- [39:255 -1:255 28 0] [0x2 3 1 [0 0] [1 4]] (REQUEST)
r 1.016084769 _15_ RTR  --- 0 AODV 48 [0 ffffffff 27 800] ------- [39:255 -1:255 28 0] [0x2 3 1 [0 0] [1 4]] (REQUEST)
r 1.016084827 _56_ RTR  --- 0 AODV 48 [0 ffffffff 27 800] ------- [39:255 -1:255 28 0] [0x2 3 1 [0 0] [1 4]] (REQUEST)
r 1.016084860 _59_ RTR  --- 0 AODV 48 [0 ffffffff 27 800] ------- [39:255 -1:255 28 0] [0x2 3 1 [0 0] [1 4]] (REQUEST)
r 1.016084891 _43_ RTR  --- 0 AODV 48 [0 ffffffff 27 800] ------- [39:255 -1:255 28 0] [0x2 3 1 [0 0] [1 4]] (REQUEST)
r 1.016084947 _0_ RTR  --- 0 AODV 48 [0 ffffffff 27 800] ------- [39:255 -1:255 28 0] [0x2 3 1 [0 0] [1 4]] (REQUEST)
r 1.016084971 _12_ RTR  --- 0 AODV 48 [0 ffffffff 27 800] ------- [39:255 -1:255 28 0] [0x2 3 1 [0 0] [1 4]] (REQUEST)
r 1.016085032 _7_ RTR  --- 0 AODV 48 [0 ffffffff 27 800] ------- [39:255 -1:255 28 0] [0x2 3 1 [0 0] [1 4]] (REQUEST)
r 1.016085078 _6_ RTR  --- 0 AODV 48 [0 ffffffff 27 800] ------- [39:255 -1:255 28 0] [0x2 3 1 [0 0] [1 4]] (REQUEST)
r 1.016085090 _29_ RTR  --- 0 AODV 48 [0 ffffffff 27 800] ------- [39:255 -1:255 28 0] [0x2 3 1 [0 0] [1 4]] (REQUEST)
r 1.016085133 _52_ RTR  --- 0 AODV 48 [0 ffffffff 27 800] ------- [39:255 -1:255 28 0] [0x2 3 1 [0 0] [1 4]] (REQUEST)
r 1.016085144 _8_ RTR  --- 0 AODV 48 [0 ffffffff 27 800] ------- [39:255 -1:255 28 0] [0x2 3 1 [0 0] [1 4]] (REQUEST)
r 1.016085175 _13_ RTR  --- 0 AODV 48 [0 ffffffff 27 800] ------- [39:255 -1:255 28 0] [0x2 3 1 [0 0] [1 4]] (REQUEST)
r 1.016085180 _17_ RTR  --- 0 AODV 48 [0 ffffffff 27 800] ------- [39:255 -1:255 28 0] [0x2 3 1 [0 0] [1 4]] (REQUEST)
r 1.016085224 _3_ RTR  --- 0 AODV 48 [0 ffffffff 27 800] ------- [39:255 -1:255 28 0] [0x2 3 1 [0 0] [1 4]] (REQUEST)
s 1.016117999 _56_ RTR  --- 0 AODV 48 [0 ffffffff 2 800] ------- [56:255 -1:255 27 0] [0x2 4 1 [0 0] [1 4]] (REQUEST)
r 1.017223139 _43_ RTR  --- 0 AODV 48 [0 ffffffff c 800] ------- [12:255 -1:255 28 0] [0x2 3 1 [0 0] [1 4]] (REQUEST)
r 1.017223271 _52_ RTR  --- 0 AODV 48 [0 ffffffff c 800] ------- [12:255 -1:255 28 0] [0x2 3 1 [0 0] [1 4]] (REQUEST)
r 1.017223314 _59_ RTR  --- 0 AODV 48 [0 ffffffff c 800] ------- [12:255 -1:255 28 0] [0x2 3 1 [0 0] [1 4]] (REQUEST)
r 1.017223314 _13_ RTR  --- 0 AODV 48 [0 ffffffff c 800] ------- [12:255 -1:255 28 0] [0x2 3 1 [0 0] [1 4]] (REQUEST)
r 1.017223333 _0_ RTR  --- 0 AODV 48 [0 ffffffff c 800] ------- [12:255 -1:255 28 0] [0x2 3 1 [0 0] [1 4]] (REQUEST)
r 1.017223339 _2_ RTR  --- 0 AODV 48 [0 ffffffff c 800] ------- [12:255 -1:255 28 0] [0x2 3 1 [0 0] [1 4]] (REQUEST)
r 1.017223414 _46_ RTR  --- 0 AODV 48 [0 ffffffff c 800] ------- [12:255 -1:255 28 0] [0x2 3 1 [0 0] [1 4]] (REQUEST)
r 1.017223484 _39_ RTR  --- 0 AODV 48 [0 ffffffff c 800] ------- [12:255 -1:255 28 0] [0x2 3 1 [0 0] [1 4]] (REQUEST)