s 1.000000000 _1_ AGT  --- 0 cbr 1000 [0 0 0 0] ------- [1:0 0:0 32 0] [0] 0 0
r 1.000000000 _1_ RTR  --- 0 cbr 1000 [0 0 0 0] ------- [1:0 0:0 32 0] [0] 0 0
s 1.000000000 _1_ AGT  --- 1 cbr 24 [0 0 0 0] ------- [1:0 0:0 32 0] [1] 0 0
r 1.000000000 _1_ RTR  --- 1 cbr 24 [0 0 0 0] ------- [1:0 0:0 32 0] [1] 0 0
s 1.000000000 _1_ RTR  --- 0 AODV 48 [0 0 0 0] ------- [1:255 -1:255 30 0] [0x2 1 1 [0 0] [1 4]] (REQUEST)
r 1.001408061 _25_ RTR  --- 0 AODV 48 [0 ffffffff 1 800] ------- [1:255 -1:255 30 0] [0x2 1 1 [0 0] [1 4]] (REQUEST)
r 1.001408264 _37_ RTR  --- 0 AODV 48 [0 ffffffff 1 800] ------- [1:255 -1:255 30 0] [0x2 1 1 [0 0] [1 4]] (REQUEST)
r 1.001408288 _39_ RTR  --- 0 AODV 48 [0 ffffffff 1 800] ------- [1:255 -1:255 30 0] [0x2 1 1 [0 0] [1 4]] (REQUEST)
r 1.001408313 _28_ RTR  --- 0 AODV 48 [0 ffffffff 1 800] ------- [1:255 -1:255 30 0] [0x2 1 1 [0 0] [1 4]] (REQUEST)
r 1.001408374 _38_ RTR  --- 0 AODV 48 [0 ffffffff 1 800] ------- [1:255 -1:255 30 0] [0x2 1 1 [0 0] [1 4]] (REQUEST)
r 1.001408444 _52_ RTR  --- 0 AODV 48 [0 ffffffff 1 800] ------- [1:255 -1:255 30 0] [0x2 1 1 [0 0] [1 4]] (REQUEST)
r 1.001408446 _35_ RTR  --- 0 AODV 48 [0 ffffffff 1 800] ------- [1:255 -1:255 30 0] [0x2 1 1 [0 0] [1 4]] (REQUEST)
r 1.001408555 _15_ RTR  --- 0 AODV 48 [0 ffffffff 1 800] ------- [1:255 -1:255 30 0] [0x2 1 1 [0 0] [1 4]] (REQUEST)
r 1.001408595 _0_ RTR  --- 0 AODV 48 [0 ffffffff 1 800] ------- [1:255 -1:255 30 0] [0x2 1 1 [0 0] [1 4]] (REQUEST)
s 1.001408595 _0_ RTR  --- 0 AODV 44 [0 0 0 0] ------- [0:255 1:255 30 1] [0x4 1 [0 4] 10.000000] (REPLY)
r 1.001408659 _44_ RTR  --- 0 AODV 48 [0 ffffffff 1 800] ------- [1:255 -1:255 30 0] [0x2 1 1 [0 0] [1 4]] (REQUEST)
r 1.001408661 _8_ RTR  --- 0 AODV 48 [0 ffffffff 1 800] ------- [1:255 -1:255 30 0] [0x2 1 1 [0 0] [1 4]] (REQUEST)
r 1.001408682 _34_ RTR  --- 0 AODV 48 [0 ffffffff 1 800] ------- [1:255 -1:255 30 0] [0x2 1 1 [0 0] [1 4]] (REQUEST)
r 1.001408749 _23_ RTR  --- 0 AODV 48 [0 ffffffff 1 800] ------- [1:255 -1:255 30 0] [0x2 1 1 [0 0] [1 4]] (REQUEST)
s 1.001550108 _25_ RTR  --- 0 AODV 48 [0 ffffffff 1 800] ------- [25:255 -1:255 29 0] [0x2 2 1 [0 0] [1 4]] (REQUEST)
s 1.001836694 _23_ RTR  --- 0 AODV 48 [0 ffffffff 1 800] ------- [23:255 -1:255 29 0] [0x2 2 1 [0 0] [1 4]] (REQUEST)
s 1.002289490 _37_ RTR  --- 0 AODV 48 [0 ffffffff 1 800] ------- [37:255 -1:255 29 0] [0x2 2 1 [0 0] [1 4]] (REQUEST)
s 1.003050136 _34_ RTR  --- 0 AODV 48 [0 ffffffff 1 800] ------- [34:255 -1:255 29 0] [0x2 2 1 [0 0] [1 4]] (REQUEST)
s 1.003754464 _35_ RTR  --- 0 AODV 48 [0 ffffffff 1 800] ------- [35:255 -1:255 29 0] [0x2 2 1 [0 0] [1 4]] (REQUEST)
s 1.004499450 _44_ RTR  --- 0 AODV 48 [0 ffffffff 1 800] ------- [44:255 -1:255 29 0] [0x2 2 1 [0 0] [1 4]] (REQUEST)
s 1.004537992 _38_ RTR  --- 0 AODV 48 [0 ffffffff 1 800] ------- [38:255 -1:255 29 0] [0x2 2 1 [0 0] [1 4]] (REQUEST)
r 1.005330586 _1_ RTR  --- 0 AODV 48 [0 ffffffff 19 800] ------- [25:255 -1:255 29 0] [0x2 2 1 [0 0] [1 4]] (REQUEST)
r 1.005330727 _37_ RTR  --- 0 AODV 48 [0 ffffffff 19 800] ------- [25:255 -1:255 29 0] [0x2 2 1 [0 0] [1 4]] (REQUEST)
r 1.005330777 _28_ RTR  --- 0 AODV 48 [0 ffffffff 19 800] ------- [25:255 -1:255 29 0] [0x2 2 1 [0 0] [1 4]] (REQUEST)
r 1.005330855 _39_ RTR  --- 0 AODV 48 [0 ffffffff 19 800] ------- [25:255 -1:255 29 0] [0x2 2 1 [0 0] [1 4]] (REQUEST)
r 1.005330903 _38_ RTR  --- 0 AODV 48 [0 ffffffff 19 800] ------- [25:255 -1:255 29 0] [0x2 2 1 [0 0] [1 4]] (REQUEST)
r 1.005330911 _35_ RTR  --- 0 AODV 48 [0 ffffffff 19 800] ------- [25:255 -1:255 29 0] [0x2 2 1 [0 0] [1 4]] (REQUEST)
r 1.005330940 _52_ RTR  --- 0 AODV 48 [0 ffffffff 19 800] ------- [25:255 -1:255 29 0] [0x2 2 1 [0 0] [1 4]] (REQUEST)
r 1.005331024 _15_ RTR  --- 0 AODV 48 [0 ffffffff 19 800] ------- [25:255 -1:255 29 0] [0x2 2 1 [0 0] [1 4]] (REQUEST)
r 1.005331071 _0_ RTR  --- 0 AODV 48 [0 ffffffff 19 800] ------- [25:255 -1:255 29 0] [0x2 2 1 [0 0] [1 4]] (REQUEST)
r 1.005331124 _44_ RTR  --- 0 AODV 48 [0 ffffffff 19 800] ------- [25:255 -1:255 29 0] [0x2 2 1 [0 0] [1 4]] (REQUEST)
r 1.005331172 _8_ RTR  --- 0 AODV 48 [0 ffffffff 19 800] ------- [25:255 -1:255 29 0] [0x2 2 1 [0 0] [1 4]] (REQUEST)
r 1.005331238 _34_ RTR  --- 0 AODV 48 [0 ffffffff 19 800] ------- [25:255 -1:255 29 0] [0x2 2 1 [0 0] [1 4]] (REQUEST)
r 1.005331250 _23_ RTR  --- 0 AODV 48 [0 ffffffff 19 800] ------- [25:255 -1:255 29 0] [0x2 2 1 [0 0] [1 4]] (REQUEST)
s 1.005820022 _39_ RTR  --- 0 AODV 48 [0 ffffffff 1 800] ------- [39:255 -1:255 29 0] [0x2 2 1 [0 0] [1 4]] (REQUEST)
r 1.006348826 _28_ RTR  --- 0 AODV 48 [0 ffffffff 25 800] ------- [37:255 -1:255 29 0] [0x2 2 1 [0 0] [1 4]] (REQUEST)
r 1.006348911 _35_ RTR  --- 0 AODV 48 [0 ffffffff 25 800] ------- [37:255 -1:255 29 0] [0x2 2 1 [0 0] [1 4]] (REQUEST)
r 1.006348931 _25_ RTR  --- 0 AODV 48 [0 ffffffff 25 800] ------- [37:255 -1:255 29 0] [0x2 2 1 [0 0] [1 4]] (REQUEST)
r 1.006348991 _1_ RTR  --- 0 AODV 48 [0 ffffffff 25 800] ------- [37:255 -1:255 29 0] [0x2 2 1 [0 0] [1 4]] (REQUEST)
r 1.006349082 _15_ RTR  --- 0 AODV 48 [0 ffffffff 25 800] ------- [37:255 -1:255 29 0] [0x2 2 1 [0 0] [1 4]] (REQUEST)
r 1.006349112 _0_ RTR  --- 0 AODV 48 [0 ffffffff 25 800] ------- [37:255 -1:255 29 0] [0x2 2 1 [0 0] [1 4]] (REQUEST)
r 1.006349147 _52_ RTR  --- 0 AODV 48 [0 ffffffff 25 800] ------- [37:255 -1:255 29 0] [0x2 2 1 [0 0] [1 4]] (REQUEST)
r 1.006349149 _44_ RTR  --- 0 AODV 48 [0 ffffffff 25 800] ------- [37:255 -1:255 29 0] [0x2 2 1 [0 0] [1 4]] (REQUEST)
r 1.006349213 _38_ RTR  --- 0 AODV 48 [0 ffffffff 25 800] ------- [37:255 -1:255 29 0] [0x2 2 1 [0 0] [1 4]] (REQUEST)
r 1.006349242 _39_ RTR  --- 0 AODV 48 [0 ffffffff 25 800] ------- [37:255 -1:255 29 0] [0x2 2 1 [0 0] [1 4]] (REQUEST)
r 1.006349338 _8_ RTR  --- 0 AODV 48 [0 ffffffff 25 800] ------- [37:255 -1:255 29 0] [0x2 2 1 [0 0] [1 4]] (REQUEST)
r 1.006349446 _23_ RTR  --- 0 AODV 48 [0 ffffffff 25 800] ------- [37:255 -1:255 29 0] [0x2 2 1 [0 0] [1 4]] (REQUEST)
r 1.006349543 _34_ RTR  --- 0 AODV 48 [0 ffffffff 25 800] ------- [37:255 -1:255 29 0] [0x2 2 1 [0 0] [1 4]] (REQUEST)
r 1.006349549 _41_ RTR  --- 0 AODV 48 [0 ffffffff 25 800] ------- [37:255 -1:255 29 0] [0x2 2 1 [0 0] [1 4]] (REQUEST)
r 1.007307094 _37_ RTR  --- 0 AODV 48 [0 ffffffff 23 800] ------- [35:255 -1:255 29 0] [0x2 2 1 [0 0] [1 4]] (REQUEST)
r 1.007307097 _28_ RTR  --- 0 AODV 48 [0 ffffffff 23 800] ------- [35:255 -1:255 29 0] [0x2 2 1 [0 0] [1 4]] (REQUEST)
r 1.007307183 _0_ RTR  --- 0 AODV 48 [0 ffffffff 23 800] ------- [35:255 -1:255 29 0] [0x2 2 1 [0 0] [1 4]] (REQUEST)
r 1.007307213 _44_ RTR  --- 0 AODV 48 [0 ffffffff 23 800] ------- [35:255 -1:255 29 0] [0x2 2 1 [0 0] [1 4]] (REQUEST)
r 1.007307218 _15_ RTR  --- 0 AODV 48 [0 ffffffff 23 800] ------- [35:255 -1:255 29 0] [0x2 2 1 [0 0] [1 4]] (REQUEST)
r 1.007307297 _25_ RTR  --- 0 AODV 48 [0 ffffffff 23 800] ------- [35:255 -1:255 29 0] [0x2 2 1 [0 0] [1 4]] (REQUEST)
r 1.007307357 _1_ RTR  --- 0 AODV 48 [0 ffffffff 23 800] ------- [35:255 -1:255 29 0] [0x2 2 1 [0 0] [1 4]] (REQUEST)
r 1.007307422 _52_ RTR  --- 0 AODV 48 [0 ffffffff 23 800] ------- [35:255 -1:255 29 0] [0x2 2 1 [0 0] [1 4]] (REQUEST)
r 1.007307530 _8_ RTR  --- 0 AODV 48 [0 ffffffff 23 800] ------- [35:255 -1:255 29 0] [0x2 2 1 [0 0] [1 4]] (REQUEST)
r 1.007307543 _38_ RTR  --- 0 AODV 48 [0 ffffffff 23 800] ------- [35:255 -1:255 29 0] [0x2 2 1 [0 0] [1 4]] (REQUEST)
r 1.007307604 _39_ RTR  --- 0 AODV 48 [0 ffffffff 23 800] ------- [35:255 -1:255 29 0] [0x2 2 1 [0 0] [1 4]] (REQUEST)
r 1.007307654 _42_ RTR  --- 0 AODV 48 [0 ffffffff 23 800] ------- [35:255 -1:255 29 0] [0x2 2 1 [0 0] [1 4]] (REQUEST)
r 1.007307666 _29_ RTR  --- 0 AODV 48 [0 ffffffff 23 800] ------- [35:255 -1:255 29 0] [0x2 2 1 [0 0] [1 4]] (REQUEST)
r 1.007307685 _23_ RTR  --- 0 AODV 48 [0 ffffffff 23 800] ------- [35:255 -1:255 29 0] [0x2 2 1 [0 0] [1 4]] (REQUEST)
r 1.007307696 _7_ RTR  --- 0 AODV 48 [0 ffffffff 23 800] ------- [35:255 -1:255 29 0] [0x2 2 1 [0 0] [1 4]] (REQUEST)
r 1.007307697 _17_ RTR  --- 0 AODV 48 [0 ffffffff 23 800] ------- [35:255 -1:255 29 0] [0x2 2 1 [0 0] [1 4]] (REQUEST)
r 1.007307718 _41_ RTR  --- 0 AODV 48 [0 ffffffff 23 800] ------- [35:255 -1:255 29 0] [0x2 2 1 [0 0] [1 4]] (REQUEST)
s 1.007797207 _15_ RTR  --- 0 AODV 48 [0 ffffffff 1 800] ------- [15:255 -1:255 29 0] [0x2 2 1 [0 0] [1 4]] (REQUEST)
s 1.008521143 _41_ RTR  --- 0 AODV 48 [0 ffffffff 25 800] ------- [41:255 -1:255 28 0] [0x2 3 1 [0 0] [1 4]] (REQUEST)
r 1.008870969 _1_ RTR  --- 0 AODV 44 [13a 1 0 800] ------- [0:255 1:255 30 1] [0x4 1 [0 4] 10.000000] (REPLY)
s 1.008870969 _1_ RTR  --- 0 cbr 1020 [0 0 0 0] ------- [1:0 0:0 30 0] [0] 0 0
s 1.009399868 _28_ RTR  --- 0 AODV 48 [0 ffffffff 1 800] ------- [28:255 -1:255 29 0] [0x2 2 1 [0 0] [1 4]] (REQUEST)
s 1.009573204 _52_ RTR  --- 0 AODV 48 [0 ffffffff 1 800] ------- [52:255 -1:255 29 0] [0x2 2 1 [0 0] [1 4]] (REQUEST)
s 1.009771896 _8_ RTR  --- 0 AODV 48 [0 ffffffff 1 800] ------- [8:255 -1:255 29 0] [0x2 2 1 [0 0] [1 4]] (REQUEST)
r 1.010123781 _15_ RTR  --- 0 AODV 48 [0 ffffffff 2c 800] ------- [44:255 -1:255 29 0] [0x2 2 1 [0 0] [1 4]] (REQUEST)
r 1.010123931 _35_ RTR  --- 0 AODV 48 [0 ffffffff 2c 800] ------- [44:255 -1:255 29 0] [0x2 2 1 [0 0] [1 4]] (REQUEST)
r 1.010123975 _28_ RTR  --- 0 AODV 48 [0 ffffffff 2c 800] ------- [44:255 -1:255 29 0] [0x2 2 1 [0 0] [1 4]] (REQUEST)
r 1.010124049 _37_ RTR  --- 0 AODV 48 [0 ffffffff 2c 800] ------- [44:255 -1:255 29 0] [0x2 2 1 [0 0] [1 4]] (REQUEST)
r 1.010124113 _52_ RTR  --- 0 AODV 48 [0 ffffffff 2c 800] ------- [44:255 -1:255 29 0] [0x2 2 1 [0 0] [1 4]] (REQUEST)
r 1.010124145 _0_ RTR  --- 0 AODV 48 [0 ffffffff 2c 800] ------- [44:255 -1:255 29 0] [0x2 2 1 [0 0] [1 4]] (REQUEST)
r 1.010124145 _17_ RTR  --- 0 AODV 48 [0 ffffffff 2c 800] ------- [44:255 -1:255 29 0] [0x2 2 1 [0 0] [1 4]] (REQUEST)
r 1.010124196 _41_ RTR  --- 0 AODV 48 [0 ffffffff 2c 800] ------- [44:255 -1:255 29 0] [0x2 2 1 [0 0] [1 4]] (REQUEST)
r 1.010124215 _51_ RTR  --- 0 AODV 48 [0 ffffffff 2c 800] ------- [44:255 -1:255 29 0] [0x2 2 1 [0 0] [1 4]] (REQUEST)
r 1.010124228 _25_ RTR  --- 0 AODV 48 [0 ffffffff 2c 800] ------- [44:255 -1:255 29 0] [0x2 2 1 [0 0] [1 4]] (REQUEST)
r 1.010124264 _23_ RTR  --- 0 AODV 48 [0 ffffffff 2c 800] ------- [44:255 -1:255 29 0] [0x2 2 1 [0 0] [1 4]] (REQUEST)
r 1.010124287 _1_ RTR  --- 0 AODV 48 [0 ffffffff 2c 800] ------- [44:255 -1:255 29 0] [0x2 2 1 [0 0] [1 4]] (REQUEST)
r 1.010124312 _38_ RTR  --- 0 AODV 48 [0 ffffffff 2c 800] ------- [44:255 -1:255 29 0] [0x2 2 1 [0 0] [1 4]] (REQUEST)
r 1.010124363 _33_ RTR  --- 0 AODV 48 [0 ffffffff 2c 800] ------- [44:255 -1:255 29 0] [0x2 2 1 [0 0] [1 4]] (REQUEST)
r 1.010124461 _39_ RTR  --- 0 AODV 48 [0 ffffffff 2c 800] ------- [44:255 -1:255 29 0] [0x2 2 1 [0 0] [1 4]] (REQUEST)
s 1.010232446 _33_ RTR  --- 0 AODV 48 [0 ffffffff 2c 800] ------- [33:255 -1:255 28 0] [0x2 3 1 [0 0] [1 4]] (REQUEST)
s 1.010708241 _51_ RTR  --- 0 AODV 48 [0 ffffffff 2c 800] ------- [51:255 -1:255 28 0] [0x2 3 1 [0 0] [1 4]] (REQUEST)
r 1.011061934 _44_ RTR  --- 0 AODV 48 [0 ffffffff f 800] ------- [15:255 -1:255 29 0] [0x2 2 1 [0 0] [1 4]] (REQUEST)
r 1.011062043 _28_ RTR  --- 0 AODV 48 [0 ffffffff f 800] ------- [15:255 -1:255 29 0] [0x2 2 1 [0 0] [1 4]] (REQUEST)
r 1.011062088 _35_ RTR  --- 0 AODV 48 [0 ffffffff f 800] ------- [15:255 -1:255 29 0] [0x2 2 1 [0 0] [1 4]] (REQUEST)
r 1.011062136 _37_ RTR  --- 0 AODV 48 [0 ffffffff f 800] ------- [15:255 -1:255 29 0] [0x2 2 1 [0 0] [1 4]] (REQUEST)
r 1.011062349 _0_ RTR  --- 0 AODV 48 [0 ffffffff f 800] ------- [15:255 -1:255 29 0] [0x2 2 1 [0 0] [1 4]] (REQUEST)
r 1.011062517 _5_ RTR  --- 0 AODV 48 [0 ffffffff 17 800] ------- [23:255 -1:255 29 0] [0x2 2 1 [0 0] [1 4]] (REQUEST)
s 1.013632454 _5_ RTR  --- 0 AODV 48 [0 ffffffff 17 800] ------- [5:255 -1:255 28 0] [0x2 3 1 [0 0] [1 4]] (REQUEST)
s 1.014081156 _29_ RTR  --- 0 AODV 48 [0 ffffffff 23 800] ------- [29:255 -1:255 28 0] [0x2 3 1 [0 0] [1 4]] (REQUEST)
s 1.014930015 _7_ RTR  --- 0 AODV 48 [0 ffffffff 23 800] ------- [7:255 -1:255 28 0] [0x2 3 1 [0 0] [1 4]] (REQUEST)
s 1.015818720 _42_ RTR  --- 0 AODV 48 [0 ffffffff 23 800] ------- [42:255 -1:255 28 0] [0x2 3 1 [0 0] [1 4]] (REQUEST)
s 1.016357151 _17_ RTR  --- 0 AODV 48 [0 ffffffff 23 800] ------- [17:255 -1:255 28 0] [0x2 3 1 [0 0] [1 4]] (REQUEST)
s 1.018870969 _1_ RTR  --- 1 cbr 44 [0 0 0 0] ------- [1:0 0:0 30 0] [1] 0 0
r 1.020898799 _0_ AGT  --- 0 cbr 1020 [13a 0 1 800] ------- [1:0 0:0 30 0] [0] 1 0
r 1.022161242 _7_ RTR  --- 0 AODV 48 [0 ffffffff 1d 800] ------- [29:255 -1:255 28 0] [0x2 3 1 [0 0] [1 4]] (REQUEST)
r 1.022161361 _42_ RTR  --- 0 AODV 48 [0 ffffffff 1d 800] ------- [29:255 -1:255 28 0] [0x2 3 1 [0 0] [1 4]] (REQUEST)
r 1.022161469 _20_ RTR  --- 0 AODV 48 [0 ffffffff 1d 800] ------- [29:255 -1:255 28 0] [0x2 3 1 [0 0] [1 4]] (REQUEST)
r 1.022161653 _8_ RTR  --- 0 AODV 48 [0 ffffffff 1d 800] ------- [29:255 -1:255 28 0] [0x2 3 1 [0 0] [1 4]] (REQUEST)
r 1.022161692 _0_ RTR  --- 0 AODV 48 [0 ffffffff 1d 800] ------- [29:255 -1:255 28 0] [0x2 3 1 [0 0] [1 4]] (REQUEST)
r 1.022161730 _31_ RTR  --- 0 AODV 48 [0 ffffffff 1d 800] ------- [29:255 -1:255 28 0] [0x2 3 1 [0 0] [1 4]] (REQUEST)
r 1.022161886 _32_ RTR  --- 0 AODV 48 [0 ffffffff 1d 800] ------- [29:255 -1:255 28 0] [0x2 3 1 [0 0] [1 4]] (REQUEST)
r 1.022161954 _36_ RTR  --- 0 AODV 48 [0 ffffffff 1d 800] ------- [29:255 -1:255 28 0] [0x2 3 1 [0 0] [1 4]] (REQUEST)
r 1.022161963 _35_ RTR  --- 0 AODV 48 [0 ffffffff 1d 800] ------- [29:255 -1:255 28 0] [0x2 3 1 [0 0] [1 4]] (REQUEST)
r 1.023100079 _0_ RTR  --- 0 AODV 48 [0 ffffffff 8 800] ------- [8:255 -1:255 29 0] [0x2 2 1 [0 0] [1 4]] (REQUEST)
r 1.023100098 _29_ RTR  --- 0 AODV 48 [0 ffffffff 8 800] ------- [8:255 -1:255 29 0] [0x2 2 1 [0 0] [1 4]] (REQUEST)
r 1.023100100 _7_ RTR  --- 0 AODV 48 [0 ffffffff 8 800] ------- [8:255 -1:255 29 0] [0x2 2 1 [0 0] [1 4]] (REQUEST)
r 1.023100155 _34_ RTR  --- 0 AODV 48 [0 ffffffff 8 800] ------- [8:255 -1:255 29 0] [0x2 2 1 [0 0] [1 4]] (REQUEST)
r 1.023100195 _31_ RTR  --- 0 AODV 48 [0 ffffffff 8 800] ------- [8:255 -1:255 29 0] [0x2 2 1 [0 0] [1 4]] (REQUEST)
r 1.023100211 _36_ RTR  --- 0 AODV 48 [0 ffffffff 8 800] ------- [8:255 -1:255 29 0] [0x2 2 1 [0 0] [1 4]] (REQUEST)
r 1.023100216 _42_ RTR  --- 0 AODV 48 [0 ffffffff 8 800] ------- [8:255 -1:255 29 0] [0x2 2 1 [0 0] [1 4]] (REQUEST)
r 1.023100263 _37_ RTR  --- 0 AODV 48 [0 ffffffff 8 800] ------- [8:255 -1:255 29 0] [0x2 2 1 [0 0] [1 4]] (REQUEST)
r 1.023100272 _35_ RTR  --- 0 AODV 48 [0 ffffffff 8 800] ------- [8:255 -1:255 29 0] [0x2 2 1 [0 0] [1 4]] (REQUEST)
r 1.023100301 _25_ RTR  --- 0 AODV 48 [0 ffffffff 8 800] ------- [8:255 -1:255 29 0] [0x2 2 1 [0 0] [1 4]] (REQUEST)
r 1.023100313 _1_ RTR  --- 0 AODV 48 [0 ffffffff 8 800] ------- [8:255 -1:255 29 0] [0x2 2 1 [0 0] [1 4]] (REQUEST)
r 1.023100357 _28_ RTR  --- 0 AODV 48 [0 ffffffff 8 800] ------- [8:255 -1:255 29 0] [0x2 2 1 [0 0] [1 4]] (REQUEST)
r 1.023100358 _20_ RTR  --- 0 AODV 48 [0 ffffffff 8 800] ------- [8:255 -1:255 29 0] [0x2 2 1 [0 0] [1 4]] (REQUEST)
r 1.024018657 _8_ RTR  --- 0 AODV 48 [0 ffffffff 22 800] ------- [34:255 -1:255 29 0] [0x2 2 1 [0 0] [1 4]] (REQUEST)
r 1.024018723 _36_ RTR  --- 0 AODV 48 [0 ffffffff 22 800] ------- [34:255 -1:255 29 0] [0x2 2 1 [0 0] [1 4]] (REQUEST)
r 1.024018837 _1_ RTR  --- 0 AODV 48 [0 ffffffff 22 800] ------- [34:255 -1:255 29 0] [0x2 2 1 [0 0] [1 4]] (REQUEST)
r 1.024018869 _25_ RTR  --- 0 AODV 48 [0 ffffffff 22 800] ------- [34:255 -1:255 29 0] [0x2 2 1 [0 0] [1 4]] (REQUEST)
r 1.024018938 _31_ RTR  --- 0 AODV 48 [0 ffffffff 22 800] ------- [34:255 -1:255 29 0] [0x2 2 1 [0 0] [1 4]] (REQUEST)
r 1.024018971 _37_ RTR  --- 0 AODV 48 [0 ffffffff 22 800] ------- [34:255 -1:255 29 0] [0x2 2 1 [0 0] [1 4]] (REQUEST)
r 1.024018984 _39_ RTR  --- 0 AODV 48 [0 ffffffff 22 800] ------- [34:255 -1:255 29 0] [0x2 2 1 [0 0] [1 4]] (REQUEST)
s 1.024023873 _31_ RTR  --- 0 AODV 48 [0 ffffffff 1d 800] ------- [31:255 -1:255 27 0] [0x2 4 1 [0 0] [1 4]] (REQUEST)
s 1.025434639 _20_ RTR  --- 0 AODV 48 [0 ffffffff 1d 800] ------- [20:255 -1:255 27 0] [0x2 4 1 [0 0] [1 4]] (REQUEST)
r 1.025722623 _0_ AGT  --- 1 cbr 44 [13a 0 1 800] ------- [1:0 0:0 30 0] [1] 1 0
r 1.026955623 _38_ RTR  --- 0 AODV 48 [0 ffffffff 34 800] ------- [52:255 -1:255 29 0] [0x2 2 1 [0 0] [1 4]] (REQUEST)
r 1.026955710 _23_ RTR  --- 0 AODV 48 [0 ffffffff 34 800] ------- [52:255 -1:255 29 0] [0x2 2 1 [0 0] [1 4]] (REQUEST)
r 1.026955731 _15_ RTR  --- 0 AODV 48 [0 ffffffff 34 800] ------- [52:255 -1:255 29 0] [0x2 2 1 [0 0] [1 4]] (REQUEST)
r 1.026955742 _28_ RTR  --- 0 AODV 48 [0 ffffffff 34 800] ------- [52:255 -1:255 29 0] [0x2 2 1 [0 0] [1 4]] (REQUEST)
r 1.026955815 _25_ RTR  --- 0 AODV 48 [0 ffffffff 34 800] ------- [52:255 -1:255 29 0] [0x2 2 1 [0 0] [1 4]] (REQUEST)
r 1.026955819 _37_ RTR  --- 0 AODV 48 [0 ffffffff 34 800] ------- [52:255 -1:255 29 0] [0x2 2 1 [0 0] [1 4]] (REQUEST)
r 1.026955840 _39_ RTR  --- 0 AODV 48 [0 ffffffff 34 800] ------- [52:255 -1:255 29 0] [0x2 2 1 [0 0] [1 4]] (REQUEST)
r 1.026955843 _1_ RTR  --- 0 AODV 48 [0 ffffffff 34 800] ------- [52:255 -1:255 29 0] [0x2 2 1 [0 0] [1 4]] (REQUEST)
r 1.026955884 _44_ RTR  --- 0 AODV 48 [0 ffffffff 34 800] ------- [52:255 -1:255 29 0] [0x2 2 1 [0 0] [1 4]] (REQUEST)
r 1.026955905 _41_ RTR  --- 0 AODV 48 [0 ffffffff 34 800] ------- [52:255 -1:255 29 0] [0x2 2 1 [0 0] [1 4]] (REQUEST)
r 1.026955911 _35_ RTR  --- 0 AODV 48 [0 ffffffff 34 800] ------- [52:255 -1:255 29 0] [0x2 2 1 [0 0] [1 4]] (REQUEST)
r 1.026955925 _5_ RTR  --- 0 AODV 48 [0 ffffffff 34 800] ------- [52:255 -1:255 29 0] [0x2 2 1 [0 0] [1 4]] (REQUEST)
r 1.026956046 _21_ RTR  --- 0 AODV 48 [0 ffffffff 34 800] ------- [52:255 -1:255 29 0] [0x2 2 1 [0 0] [1 4]] (REQUEST)
r 1.026956047 _45_ RTR  --- 0 AODV 48 [0 ffffffff 34 800] ------- [52:255 -1:255 29 0] [0x2 2 1 [0 0] [1 4]] (REQUEST)
r 1.026956176 _0_ RTR  --- 0 AODV 48 [0 ffffffff 34 800] ------- [52:255 -1:255 29 0] [0x2 2 1 [0 0] [1 4]] (REQUEST)
s 1.027457381 _45_ RTR  --- 0 AODV 48 [0 ffffffff 34 800] ------- [45:255 -1:255 28 0] [0x2 3 1 [0 0] [1 4]] (REQUEST)
r 1.027933846 _52_ RTR  --- 0 AODV 48 [0 ffffffff 26 800] ------- [38:255 -1:255 29 0] [0x2 2 1 [0 0] [1 4]] (REQUEST)
r 1.027933864 _39_ RTR  --- 0 AODV 48 [0 ffffffff 26 800] ------- [38:255 -1:255 29 0] [0x2 2 1 [0 0] [1 4]] (REQUEST)
r 1.027933997 _1_ RTR  --- 0 AODV 48 [0 ffffffff 26 800] ------- [38:255 -1:255 29 0] [0x2 2 1 [0 0] [1 4]] (REQUEST)
r 1.027934002 _25_ RTR  --- 0 AODV 48 [0 ffffffff 26 800] ------- [38:255 -1:255 29 0] [0x2 2 1 [0 0] [1 4]] (REQUEST)
r 1.027934058 _23_ RTR  --- 0 AODV 48 [0 ffffffff 26 800] ------- [38:255 -1:255 29 0] [0x2 2 1 [0 0] [1 4]] (REQUEST)
r 1.027934069 _28_ RTR  --- 0 AODV 48 [0 ffffffff 26 800] ------- [38:255 -1:255 29 0] [0x2 2 1 [0 0] [1 4]] (REQUEST)
r 1.027934108 _37_ RTR  --- 0 AODV 48 [0 ffffffff 26 800] ------- [38:255 -1:255 29 0] [0x2 2 1 [0 0] [1 4]] (REQUEST)
r 1.027934156 _15_ RTR  --- 0 AODV 48 [0 ffffffff 26 800] ------- [38:255 -1:255 29 0] [0x2 2 1 [0 0] [1 4]] (REQUEST)
r 1.027934160 _21_ RTR  --- 0 AODV 48 [0 ffffffff 26 800] ------- [38:255 -1:255 29 0] [0x2 2 1 [0 0] [1 4]] (REQUEST)
r 1.027934178 _45_ RTR  --- 0 AODV 48 [0 ffffffff 26 800] ------- [38:255 -1:255 29 0] [0x2 2 1 [0 0] [1 4]] (REQUEST)
r 1.027934190 _5_ RTR  --- 0 AODV 48 [0 ffffffff 26 800] ------- [38:255 -1:255 29 0] [0x2 2 1 [0 0] [1 4]] (REQUEST)
r 1.027934255 _35_ RTR  --- 0 AODV 48 [0 ffffffff 26 800] ------- [38:255 -1:255 29 0] [0x2 2 1 [0 0] [1 4]] (REQUEST)
r 1.027934307 _44_ RTR  --- 0 AODV 48 [0 ffffffff 26 800] ------- [38:255 -1:255 29 0] [0x2 2 1 [0 0] [1 4]] (REQUEST)
r 1.027934319 _41_ RTR  --- 0 AODV 48 [0 ffffffff 26 800] ------- [38:255 -1:255 29 0] [0x2 2 1 [0 0] [1 4]] (REQUEST)
r 1.027934454 _12_ RTR  --- 0 AODV 48 [0 ffffffff 26 800] ------- [38:255 -1:255 29 0] [0x2 2 1 [0 0] [1 4]] (REQUEST)
r 1.028872623 _23_ RTR  --- 0 AODV 48 [0 ffffffff 29 800] ------- [41:255 -1:255 28 0] [0x2 3 1 [0 0] [1 4]] (REQUEST)
r 1.028872782 _5_ RTR  --- 0 AODV 48 [0 ffffffff 29 800] ------- [41:255 -1:255 28 0] [0x2 3 1 [0 0] [1 4]] (REQUEST)
r 1.028872820 _15_ RTR  --- 0 AODV 48 [0 ffffffff 29 800] ------- [41:255 -1:255 28 0] [0x2 3 1 [0 0] [1 4]] (REQUEST)
r 1.028872825 _52_ RTR  --- 0 AODV 48 [0 ffffffff 29 800] ------- [41:255 -1:255 28 0] [0x2 3 1 [0 0] [1 4]] (REQUEST)
r 1.028872886 _44_ RTR  --- 0 AODV 48 [0 ffffffff 29 800] ------- [41:255 -1:255 28 0] [0x2 3 1 [0 0] [1 4]] (REQUEST)
r 1.028872903 _13_ RTR  --- 0 AODV 48 [0 ffffffff 29 800] ------- [41:255 -1:255 28 0] [0x2 3 1 [0 0] [1 4]] (REQUEST)
r 1.028872918 _26_ RTR  --- 0 AODV 48 [0 ffffffff 29 800] ------- [41:255 -1:255 28 0] [0x2 3 1 [0 0] [1 4]] (REQUEST)
r 1.028872937 _49_ RTR  --- 0 AODV 48 [0 ffffffff 29 800] ------- [41:255 -1:255 28 0] [0x2 3 1 [0 0] [1 4]] (REQUEST)
r 1.028873015 _38_ RTR  --- 0 AODV 48 [0 ffffffff 29 800] ------- [41:255 -1:255 28 0] [0x2 3 1 [0 0] [1 4]] (REQUEST)
r 1.028873017 _17_ RTR  --- 0 AODV 48 [0 ffffffff 29 800] ------- [41:255 -1:255 28 0] [0x2 3 1 [0 0] [1 4]] (REQUEST)
r 1.028873053 _30_ RTR  --- 0 AODV 48 [0 ffffffff 29 800] ------- [41:255 -1:255 28 0] [0x2 3 1 [0 0] [1 4]] (REQUEST)
r 1.028873114 _45_ RTR  --- 0 AODV 48 [0 ffffffff 29 800] ------- [41:255 -1:255 28 0] [0x2 3 1 [0 0] [1 4]] (REQUEST)
r 1.028873114 _48_ RTR  --- 0 AODV 48 [0 ffffffff 29 800] ------- [41:255 -1:255 28 0] [0x2 3 1 [0 0] [1 4]] (REQUEST)
r 1.028873124 _51_ RTR  --- 0 AODV 48 [0 ffffffff 29 800] ------- [41:255 -1:255 28 0] [0x2 3 1 [0 0] [1 4]] (REQUEST)
r 1.028873146 _21_ RTR  --- 0 AODV 48 [0 ffffffff 29 800] ------- [41:255 -1:255 28 0] [0x2 3 1 [0 0] [1 4]] (REQUEST)
r 1.029577497 _36_ RTR  --- 0 AODV 48 [0 ffffffff 1f 800] ------- [31:255 -1:255 27 0] [0x2 4 1 [0 0] [1 4]] (REQUEST)
s 1.029754905 _13_ RTR  --- 0 AODV 48 [0 ffffffff 29 800] ------- [13:255 -1:255 27 0] [0x2 4 1 [0 0] [1 4]] (REQUEST)
r 1.029851165 _21_ RTR  --- 0 AODV 48 [0 ffffffff 2d 800] ------- [45:255 -1:255 28 0] [0x2 3 1 [0 0] [1 4]] (REQUEST)
r 1.029851467 _5_ RTR  --- 0 AODV 48 [0 ffffffff 2d 800] ------- [45:255 -1:255 28 0] [0x2 3 1 [0 0] [1 4]] (REQUEST)
r 1.029851523 _12_ RTR  --- 0 AODV 48 [0 ffffffff 2d 800] ------- [45:255 -1:255 28 0] [0x2 3 1 [0 0] [1 4]] (REQUEST)
r 1.029851632 _23_ RTR  --- 0 AODV 48 [0 ffffffff 2d 800] ------- [45:255 -1:255 28 0] [0x2 3 1 [0 0] [1 4]] (REQUEST)
r 1.029851669 _38_ RTR  --- 0 AODV 48 [0 ffffffff 2d 800] ------- [45:255 -1:255 28 0] [0x2 3 1 [0 0] [1 4]] (REQUEST)
r 1.029851762 _52_ RTR  --- 0 AODV 48 [0 ffffffff 2d 800] ------- [45:255 -1:255 28 0] [0x2 3 1 [0 0] [1 4]] (REQUEST)
r 1.029851788 _19_ RTR  --- 0 AODV 48 [0 ffffffff 2d 800] ------- [45:255 -1:255 28 0] [0x2 3 1 [0 0] [1 4]] (REQUEST)
r 1.029851909 _41_ RTR  --- 0 AODV 48 [0 ffffffff 2d 800] ------- [45:255 -1:255 28 0] [0x2 3 1 [0 0] [1 4]] (REQUEST)
s 1.030011757 _32_ RTR  --- 0 AODV 48 [0 ffffffff 1d 800] ------- [32:255 -1:255 27 0] [0x2 4 1 [0 0] [1 4]] (REQUEST)
r 1.030999715 _29_ RTR  --- 0 AODV 48 [0 ffffffff 7 800] ------- [7:255 -1:255 28 0] [0x2 3 1 [0 0] [1 4]] (REQUEST)
r 1.030999859 _42_ RTR  --- 0 AODV 48 [0 ffffffff 7 800] ------- [7:255 -1:255 28 0] [0x2 3 1 [0 0] [1 4]] (REQUEST)
r 1.030999944 _20_ RTR  --- 0 AODV 48 [0 ffffffff 7 800] ------- [7:255 -1:255 28 0] [0x2 3 1 [0 0] [1 4]] (REQUEST)
r 1.031000128 _8_ RTR  --- 0 AODV 48 [0 ffffffff 7 800] ------- [7:255 -1:255 28 0] [0x2 3 1 [0 0] [1 4]] (REQUEST)
r 1.031000172 _31_ RTR  --- 0 AODV 48 [0 ffffffff 7 800] ------- [7:255 -1:255 28 0] [0x2 3 1 [0 0] [1 4]] (REQUEST)
r 1.031000193 _0_ RTR  --- 0 AODV 48 [0 ffffffff 7 800] ------- [7:255 -1:255 28 0] [0x2 3 1 [0 0] [1 4]] (REQUEST)
r 1.031000364 _32_ RTR  --- 0 AODV 48 [0 ffffffff 7 800] ------- [7:255 -1:255 28 0] [0x2 3 1 [0 0] [1 4]] (REQUEST)
r 1.031000402 _36_ RTR  --- 0 AODV 48 [0 ffffffff 7 800] ------- [7:255 -1:255 28 0] [0x2 3 1 [0 0] [1 4]] (REQUEST)
r 1.031174284 _30_ RTR  --- 0 AODV 48 [0 ffffffff d 800] ------- [13:255 -1:255 27 0] [0x2 4 1 [0 0] [1 4]] (REQUEST)
r 1.031174322 _49_ RTR  --- 0 AODV 48 [0 ffffffff d 800] ------- [13:255 -1:255 27 0] [0x2 4 1 [0 0] [1 4]] (REQUEST)
r 1.031174569 _48_ RTR  --- 0 AODV 48 [0 ffffffff d 800] ------- [13:255 -1:255 27 0] [0x2 4 1 [0 0] [1 4]] (REQUEST)
r 1.031174682 _6_ RTR  --- 0 AODV 48 [0 ffffffff d 800] ------- [13:255 -1:255 27 0] [0x2 4 1 [0 0] [1 4]] (REQUEST)
r 1.031174763 _43_ RTR  --- 0 AODV 48 [0 ffffffff d 800] ------- [13:255 -1:255 27 0] [0x2 4 1 [0 0] [1 4]] (REQUEST)
r 1.031174824 _16_ RTR  --- 0 AODV 48 [0 ffffffff d 800] ------- [13:255 -1:255 27 0] [0x2 4 1 [0 0] [1 4]] (REQUEST)
s 1.031630116 _36_ RTR  --- 0 AODV 48 [0 ffffffff 1d 800] ------- [36:255 -1:255 27 0] [0x2 4 1 [0 0] [1 4]] (REQUEST)
s 1.031873263 _21_ RTR  --- 0 AODV 48 [0 ffffffff 34 800] ------- [21:255 -1:255 28 0] [0x2 3 1 [0 0] [1 4]] (REQUEST)
r 1.031978122 _42_ RTR  --- 0 AODV 48 [0 ffffffff 14 800] ------- [20:255 -1:255 27 0] [0x2 4 1 [0 0] [1 4]] (REQUEST)
r 1.031978205 _29_ RTR  --- 0 AODV 48 [0 ffffffff 14 800] ------- [20:255 -1:255 27 0] [0x2 4 1 [0 0] [1 4]] (REQUEST)
r 1.031978208 _7_ RTR  --- 0 AODV 48 [0 ffffffff 14 800] ------- [20:255 -1:255 27 0] [0x2 4 1 [0 0] [1 4]] (REQUEST)
r 1.031978364 _32_ RTR  --- 0 AODV 48 [0 ffffffff 14 800] ------- [20:255 -1:255 27 0] [0x2 4 1 [0 0] [1 4]] (REQUEST)
r 1.031978604 _0_ RTR  --- 0 AODV 48 [0 ffffffff 14 800] ------- [20:255 -1:255 27 0] [0x2 4 1 [0 0] [1 4]] (REQUEST)
r 1.031978623 _31_ RTR  --- 0 AODV 48 [0 ffffffff 14 800] ------- [20:255 -1:255 27 0] [0x2 4 1 [0 0] [1 4]] (REQUEST)
r 1.031978650 _8_ RTR  --- 0 AODV 48 [0 ffffffff 14 800] ------- [20:255 -1:255 27 0] [0x2 4 1 [0 0] [1 4]] (REQUEST)
r 1.032477033 _23_ RTR  --- 0 AODV 48 [0 ffffffff 5 800] ------- [5:255 -1:255 28 0] [0x2 3 1 [0 0] [1 4]] (REQUEST)
r 1.032477133 _45_ RTR  --- 0 AODV 48 [0 ffffffff 5 800] ------- [5:255 -1:255 28 0] [0x2 3 1 [0 0] [1 4]] (REQUEST)
r 1.032477174 _21_ RTR  --- 0 AODV 48 [0 ffffffff 5 800] ------- [5:255 -1:255 28 0] [0x2 3 1 [0 0] [1 4]] (REQUEST)
r 1.032477243 _41_ RTR  --- 0 AODV 48 [0 ffffffff 5 800] ------- [5:255 -1:255 28 0] [0x2 3 1 [0 0] [1 4]] (REQUEST)
r 1.032477455 _13_ RTR  --- 0 AODV 48 [0 ffffffff 5 800] ------- [5:255 -1:255 28 0] [0x2 3 1 [0 0] [1 4]] (REQUEST)
r 1.032477538 _12_ RTR  --- 0 AODV 48 [0 ffffffff 5 800] ------- [5:255 -1:255 28 0] [0x2 3 1 [0 0] [1 4]] (REQUEST)
r 1.032477613 _49_ RTR  --- 0 AODV 48 [0 ffffffff 5 800] ------- [5:255 -1:255 28 0] [0x2 3 1 [0 0] [1 4]] (REQUEST)
s 1.032674647 _43_ RTR  --- 0 AODV 48 [0 ffffffff d 800] ------- [43:255 -1:255 26 0] [0x2 5 1 [0 0] [1 4]] (REQUEST)
r 1.033356784 _20_ RTR  --- 0 AODV 48 [0 ffffffff 20 800] ------- [32:255 -1:255 27 0] [0x2 4 1 [0 0] [1 4]] (REQUEST)
r 1.033356840 _22_ RTR  --- 0 AODV 48 [0 ffffffff 20 800] ------- [32:255 -1:255 27 0] [0x2 4 1 [0 0] [1 4]] (REQUEST)
r 1.033356923 _42_ RTR  --- 0 AODV 48 [0 ffffffff 20 800] ------- [32:255 -1:255 27 0] [0x2 4 1 [0 0] [1 4]] (REQUEST)
r 1.033357042 _29_ RTR  --- 0 AODV 48 [0 ffffffff 20 800] ------- [32:255 -1:255 27 0] [0x2 4 1 [0 0] [1 4]] (REQUEST)
r 1.033357048 _7_ RTR  --- 0 AODV 48 [0 ffffffff 20 800] ------- [32:255 -1:255 27 0] [0x2 4 1 [0 0] [1 4]] (REQUEST)
s 1.033412374 _19_ RTR  --- 0 AODV 48 [0 ffffffff 2d 800] ------- [19:255 -1:255 27 0] [0x2 4 1 [0 0] [1 4]] (REQUEST)
r 1.033415226 _45_ RTR  --- 0 AODV 48 [0 ffffffff 15 800] ------- [21:255 -1:255 28 0] [0x2 3 1 [0 0] [1 4]] (REQUEST)
r 1.033415553 _12_ RTR  --- 0 AODV 48 [0 ffffffff 15 800] ------- [21:255 -1:255 28 0] [0x2 3 1 [0 0] [1 4]] (REQUEST)
r 1.033415569 _5_ RTR  --- 0 AODV 48 [0 ffffffff 15 800] ------- [21:255 -1:255 28 0] [0x2 3 1 [0 0] [1 4]] (REQUEST)
r 1.033415712 _38_ RTR  --- 0 AODV 48 [0 ffffffff 15 800] ------- [21:255 -1:255 28 0] [0x2 3 1 [0 0] [1 4]] (REQUEST)
r 1.033415716 _23_ RTR  --- 0 AODV 48 [0 ffffffff 15 800] ------- [21:255 -1:255 28 0] [0x2 3 1 [0 0] [1 4]] (REQUEST)
r 1.033415825 _19_ RTR  --- 0 AODV 48 [0 ffffffff 15 800] ------- [21:255 -1:255 28 0] [0x2 3 1 [0 0] [1 4]] (REQUEST)
r 1.033415828 _39_ RTR  --- 0 AODV 48 [0 ffffffff 15 800] ------- [21:255 -1:255 28 0] [0x2 3 1 [0 0] [1 4]] (REQUEST)
r 1.034275076 _29_ RTR  --- 0 AODV 48 [0 ffffffff 2a 800] ------- [42:255 -1:255 28 0] [0x2 3 1 [0 0] [1 4]] (REQUEST)
r 1.034275101 _20_ RTR  --- 0 AODV 48 [0 ffffffff 2a 800] ------- [42:255 -1:255 28 0] [0x2 3 1 [0 0] [1 4]] (REQUEST)
r 1.034275102 _7_ RTR  --- 0 AODV 48 [0 ffffffff 2a 800] ------- [42:255 -1:255 28 0] [0x2 3 1 [0 0] [1 4]] (REQUEST)
r 1.034275405 _0_ RTR  --- 0 AODV 48 [0 ffffffff 2a 800] ------- [42:255 -1:255 28 0] [0x2 3 1 [0 0] [1 4]] (REQUEST)
r 1.034275481 _32_ RTR  --- 0 AODV 48 [0 ffffffff 2a 800] ------- [42:255 -1:255 28 0] [0x2 3 1 [0 0] [1 4]] (REQUEST)
r 1.034275486 _8_ RTR  --- 0 AODV 48 [0 ffffffff 2a 800] ------- [42:255 -1:255 28 0] [0x2 3 1 [0 0] [1 4]] (REQUEST)
r 1.034275590 _31_ RTR  --- 0 AODV 48 [0 ffffffff 2a 800] ------- [42:255 -1:255 28 0] [0x2 3 1 [0 0] [1 4]] (REQUEST)
r 1.034275666 _35_ RTR  --- 0 AODV 48 [0 ffffffff 2a 800] ------- [42:255 -1:255 28 0] [0x2 3 1 [0 0] [1 4]] (REQUEST)
r 1.034480653 _12_ RTR  --- 0 AODV 48 [0 ffffffff 13 800] ------- [19:255 -1:255 27 0] [0x2 4 1 [0 0] [1 4]] (REQUEST)
r 1.034481024 _21_ RTR  --- 0 AODV 48 [0 ffffffff 13 800] ------- [19:255 -1:255 27 0] [0x2 4 1 [0 0] [1 4]] (REQUEST)
r 1.034481047 _45_ RTR  --- 0 AODV 48 [0 ffffffff 13 800] ------- [19:255 -1:255 27 0] [0x2 4 1 [0 0] [1 4]] (REQUEST)
r 1.034859128 _2_ RTR  --- 0 AODV 48 [0 ffffffff 2b 800] ------- [43:255 -1:255 26 0] [0x2 5 1 [0 0] [1 4]] (REQUEST)
r 1.034859377 _48_ RTR  --- 0 AODV 48 [0 ffffffff 2b 800] ------- [43:255 -1:255 26 0] [0x2 5 1 [0 0] [1 4]] (REQUEST)
r 1.034859455 _6_ RTR  --- 0 AODV 48 [0 ffffffff 2b 800] ------- [43:255 -1:255 26 0] [0x2 5 1 [0 0] [1 4]] (REQUEST)
r 1.034859586 _14_ RTR  --- 0 AODV 48 [0 ffffffff 2b 800] ------- [43:255 -1:255 26 0] [0x2 5 1 [0 0] [1 4]] (REQUEST)