s 1.000000000 _1_ AGT  --- 0 cbr 1000 [0 0 0 0] ------- [1:0 0:0 32 0] [0] 0 0
r 1.000000000 _1_ RTR  --- 0 cbr 1000 [0 0 0 0] ------- [1:0 0:0 32 0] [0] 0 0
s 1.000000000 _1_ AGT  --- 1 cbr 24 [0 0 0 0] ------- [1:0 0:0 32 0] [1] 0 0
r 1.000000000 _1_ RTR  --- 1 cbr 24 [0 0 0 0] ------- [1:0 0:0 32 0] [1] 0 0
s 1.000000000 _1_ RTR  --- 0 AODV 48 [0 0 0 0] ------- [1:255 -1:255 30 0] [0x2 1 1 [0 0] [1 4]] (REQUEST)
r 1.001408120 _11_ RTR  --- 0 AODV 48 [0 ffffffff 1 800] ------- [1:255 -1:255 30 0] [0x2 1 1 [0 0] [1 4]] (REQUEST)
r 1.001408202 _15_ RTR  --- 0 AODV 48 [0 ffffffff 1 800] ------- [1:255 -1:255 30 0] [0x2 1 1 [0 0] [1 4]] (REQUEST)
r 1.001408222 _5_ RTR  --- 0 AODV 48 [0 ffffffff 1 800] ------- [1:255 -1:255 30 0] [0x2 1 1 [0 0] [1 4]] (REQUEST)
r 1.001408319 _26_ RTR  --- 0 AODV 48 [0 ffffffff 1 800] ------- [1:255 -1:255 30 0] [0x2 1 1 [0 0] [1 4]] (REQUEST)
r 1.001408369 _36_ RTR  --- 0 AODV 48 [0 ffffffff 1 800] ------- [1:255 -1:255 30 0] [0x2 1 1 [0 0] [1 4]] (REQUEST)
r 1.001408439 _17_ RTR  --- 0 AODV 48 [0 ffffffff 1 800] ------- [1:255 -1:255 30 0] [0x2 1 1 [0 0] [1 4]] (REQUEST)
r 1.001408479 _3_ RTR  --- 0 AODV 48 [0 ffffffff 1 800] ------- [1:255 -1:255 30 0] [0x2 1 1 [0 0] [1 4]] (REQUEST)
r 1.001408503 _73_ RTR  --- 0 AODV 48 [0 ffffffff 1 800] ------- [1:255 -1:255 30 0] [0x2 1 1 [0 0] [1 4]] (REQUEST)
r 1.001408515 _61_ RTR  --- 0 AODV 48 [0 ffffffff 1 800] ------- [1:255 -1:255 30 0] [0x2 1 1 [0 0] [1 4]] (REQUEST)
r 1.001408524 _50_ RTR  --- 0 AODV 48 [0 ffffffff 1 800] ------- [1:255 -1:255 30 0] [0x2 1 1 [0 0] [1 4]] (REQUEST)
r 1.001408524 _7_ RTR  --- 0 AODV 48 [0 ffffffff 1 800] ------- [1:255 -1:255 30 0] [0x2 1 1 [0 0] [1 4]] (REQUEST)
r 1.001408569 _37_ RTR  --- 0 AODV 48 [0 ffffffff 1 800] ------- [1:255 -1:255 30 0] [0x2 1 1 [0 0] [1 4]] (REQUEST)
r 1.001408576 _33_ RTR  --- 0 AODV 48 [0 ffffffff 1 800] ------- [1:255 -1:255 30 0] [0x2 1 1 [0 0] [1 4]] (REQUEST)
r 1.001408576 _53_ RTR  --- 0 AODV 48 [0 ffffffff 1 800] ------- [1:255 -1:255 30 0] [0x2 1 1 [0 0] [1 4]] (REQUEST)
r 1.001408601 _65_ RTR  --- 0 AODV 48 [0 ffffffff 1 800] ------- [1:255 -1:255 30 0] [0x2 1 1 [0 0] [1 4]] (REQUEST)
r 1.001408608 _62_ RTR  --- 0 AODV 48 [0 ffffffff 1 800] ------- [1:255 -1:255 30 0] [0x2 1 1 [0 0] [1 4]] (REQUEST)
r 1.001408645 _34_ RTR  --- 0 AODV 48 [0 ffffffff 1 800] ------- [1:255 -1:255 30 0] [0x2 1 1 [0 0] [1 4]] (REQUEST)
r 1.001408652 _38_ RTR  --- 0 AODV 48 [0 ffffffff 1 800] ------- [1:255 -1:255 30 0] [0x2 1 1 [0 0] [1 4]] (REQUEST)
r 1.001408695 _59_ RTR  --- 0 AODV 48 [0 ffffffff 1 800] ------- [1:255 -1:255 30 0] [0x2 1 1 [0 0] [1 4]] (REQUEST)
r 1.001408705 _25_ RTR  --- 0 AODV 48 [0 ffffffff 1 800] ------- [1:255 -1:255 30 0] [0x2 1 1 [0 0] [1 4]] (REQUEST)
r 1.001408737 _51_ RTR  --- 0 AODV 48 [0 ffffffff 1 800] ------- [1:255 -1:255 30 0] [0x2 1 1 [0 0] [1 4]] (REQUEST)
r 1.001408783 _58_ RTR  --- 0 AODV 48 [0 ffffffff 1 800] ------- [1:255 -1:255 30 0] [0x2 1 1 [0 0] [1 4]] (REQUEST)
r 1.001408788 _43_ RTR  --- 0 AODV 48 [0 ffffffff 1 800] ------- [1:255 -1:255 30 0] [0x2 1 1 [0 0] [1 4]] (REQUEST)
r 1.001408808 _31_ RTR  --- 0 AODV 48 [0 ffffffff 1 800] ------- [1:255 -1:255 30 0] [0x2 1 1 [0 0] [1 4]] (REQUEST)
r 1.001408823 _12_ RTR  --- 0 AODV 48 [0 ffffffff 1 800] ------- [1:255 -1:255 30 0] [0x2 1 1 [0 0] [1 4]] (REQUEST)
r 1.001408825 _39_ RTR  --- 0 AODV 48 [0 ffffffff 1 800] ------- [1:255 -1:255 30 0] [0x2 1 1 [0 0] [1 4]] (REQUEST)
s 1.001550166 _11_ RTR  --- 0 AODV 48 [0 ffffffff 1 800] ------- [11:255 -1:255 29 0] [0x2 2 1 [0 0] [1 4]] (REQUEST)
s 1.001836514 _37_ RTR  --- 0 AODV 48 [0 ffffffff 1 800] ------- [37:255 -1:255 29 0] [0x2 2 1 [0 0] [1 4]] (REQUEST)
s 1.002289429 _15_ RTR  --- 0 AODV 48 [0 ffffffff 1 800] ------- [15:255 -1:255 29 0] [0x2 2 1 [0 0] [1 4]] (REQUEST)
s 1.002350041 _38_ RTR  --- 0 AODV 48 [0 ffffffff 1 800] ------- [38:255 -1:255 29 0] [0x2 2 1 [0 0] [1 4]] (REQUEST)
s 1.002546658 _53_ RTR  --- 0 AODV 48 [0 ffffffff 1 800] ------- [53:255 -1:255 29 0] [0x2 2 1 [0 0] [1 4]] (REQUEST)
r 1.002898286 _1_ RTR  --- 0 AODV 48 [0 ffffffff b 800] ------- [11:255 -1:255 29 0] [0x2 2 1 [0 0] [1 4]] (REQUEST)
r 1.002898350 _5_ RTR  --- 0 AODV 48 [0 ffffffff b 800] ------- [11:255 -1:255 29 0] [0x2 2 1 [0 0] [1 4]] (REQUEST)
r 1.002898413 _15_ RTR  --- 0 AODV 48 [0 ffffffff b 800] ------- [11:255 -1:255 29 0] [0x2 2 1 [0 0] [1 4]] (REQUEST)
r 1.002898525 _3_ RTR  --- 0 AODV 48 [0 ffffffff b 800] ------- [11:255 -1:255 29 0] [0x2 2 1 [0 0] [1 4]] (REQUEST)
r 1.002898538 _26_ RTR  --- 0 AODV 48 [0 ffffffff b 800] ------- [11:255 -1:255 29 0] [0x2 2 1 [0 0] [1 4]] (REQUEST)
r 1.002898559 _17_ RTR  --- 0 AODV 48 [0 ffffffff b 800] ------- [11:255 -1:255 29 0] [0x2 2 1 [0 0] [1 4]] (REQUEST)
r 1.002898569 _73_ RTR  --- 0 AODV 48 [0 ffffffff b 800] ------- [11:255 -1:255 29 0] [0x2 2 1 [0 0] [1 4]] (REQUEST)
r 1.002898571 _50_ RTR  --- 0 AODV 48 [0 ffffffff b 800] ------- [11:255 -1:255 29 0] [0x2 2 1 [0 0] [1 4]] (REQUEST)
r 1.002898590 _36_ RTR  --- 0 AODV 48 [0 ffffffff b 800] ------- [11:255 -1:255 29 0] [0x2 2 1 [0 0] [1 4]] (REQUEST)
r 1.002898724 _7_ RTR  --- 0 AODV 48 [0 ffffffff b 800] ------- [11:255 -1:255 29 0] [0x2 2 1 [0 0] [1 4]] (REQUEST)
r 1.002898784 _53_ RTR  --- 0 AODV 48 [0 ffffffff b 800] ------- [11:255 -1:255 29 0] [0x2 2 1 [0 0] [1 4]] (REQUEST)
r 1.002898784 _25_ RTR  --- 0 AODV 48 [0 ffffffff b 800] ------- [11:255 -1:255 29 0] [0x2 2 1 [0 0] [1 4]] (REQUEST)
r 1.002898795 _33_ RTR  --- 0 AODV 48 [0 ffffffff b 800] ------- [11:255 -1:255 29 0] [0x2 2 1 [0 0] [1 4]] (REQUEST)
r 1.002898795 _61_ RTR  --- 0 AODV 48 [0 ffffffff b 800] ------- [11:255 -1:255 29 0] [0x2 2 1 [0 0] [1 4]] (REQUEST)
r 1.002898817 _65_ RTR  --- 0 AODV 48 [0 ffffffff b 800] ------- [11:255 -1:255 29 0] [0x2 2 1 [0 0] [1 4]] (REQUEST)
r 1.002898821 _51_ RTR  --- 0 AODV 48 [0 ffffffff b 800] ------- [11:255 -1:255 29 0] [0x2 2 1 [0 0] [1 4]] (REQUEST)
r 1.002898839 _62_ RTR  --- 0 AODV 48 [0 ffffffff b 800] ------- [11:255 -1:255 29 0] [0x2 2 1 [0 0] [1 4]] (REQUEST)
r 1.002898854 _37_ RTR  --- 0 AODV 48 [0 ffffffff b 800] ------- [11:255 -1:255 29 0] [0x2 2 1 [0 0] [1 4]] (REQUEST)
r 1.002898871 _39_ RTR  --- 0 AODV 48 [0 ffffffff b 800] ------- [11:255 -1:255 29 0] [0x2 2 1 [0 0] [1 4]] (REQUEST)
r 1.002898892 _34_ RTR  --- 0 AODV 48 [0 ffffffff b 800] ------- [11:255 -1:255 29 0] [0x2 2 1 [0 0] [1 4]] (REQUEST)
r 1.002898928 _38_ RTR  --- 0 AODV 48 [0 ffffffff b 800] ------- [11:255 -1:255 29 0] [0x2 2 1 [0 0] [1 4]] (REQUEST)
r 1.002898966 _59_ RTR  --- 0 AODV 48 [0 ffffffff b 800] ------- [11:255 -1:255 29 0] [0x2 2 1 [0 0] [1 4]] (REQUEST)
r 1.002898986 _58_ RTR  --- 0 AODV 48 [0 ffffffff b 800] ------- [11:255 -1:255 29 0] [0x2 2 1 [0 0] [1 4]] (REQUEST)
s 1.003049978 _7_ RTR  --- 0 AODV 48 [0 ffffffff 1 800] ------- [7:255 -1:255 29 0] [0x2 2 1 [0 0] [1 4]] (REQUEST)
s 1.003156698 _34_ RTR  --- 0 AODV 48 [0 ffffffff 1 800] ------- [34:255 -1:255 29 0] [0x2 2 1 [0 0] [1 4]] (REQUEST)
s 1.003754496 _3_ RTR  --- 0 AODV 48 [0 ffffffff 1 800] ------- [3:255 -1:255 29 0] [0x2 2 1 [0 0] [1 4]] (REQUEST)
r 1.003837000 _59_ RTR  --- 0 AODV 48 [0 ffffffff 26 800] ------- [38:255 -1:255 29 0] [0x2 2 1 [0 0] [1 4]] (REQUEST)
r 1.003837144 _37_ RTR  --- 0 AODV 48 [0 ffffffff 26 800] ------- [38:255 -1:255 29 0] [0x2 2 1 [0 0] [1 4]] (REQUEST)
r 1.003837397 _36_ RTR  --- 0 AODV 48 [0 ffffffff 26 800] ------- [38:255 -1:255 29 0] [0x2 2 1 [0 0] [1 4]] (REQUEST)
r 1.003837406 _61_ RTR  --- 0 AODV 48 [0 ffffffff 26 800] ------- [38:255 -1:255 29 0] [0x2 2 1 [0 0] [1 4]] (REQUEST)
r 1.003837423 _26_ RTR  --- 0 AODV 48 [0 ffffffff 26 800] ------- [38:255 -1:255 29 0] [0x2 2 1 [0 0] [1 4]] (REQUEST)
r 1.003837446 _53_ RTR  --- 0 AODV 48 [0 ffffffff 26 800] ------- [38:255 -1:255 29 0] [0x2 2 1 [0 0] [1 4]] (REQUEST)
r 1.003837475 _31_ RTR  --- 0 AODV 48 [0 ffffffff 26 800] ------- [38:255 -1:255 29 0] [0x2 2 1 [0 0] [1 4]] (REQUEST)
r 1.003837498 _15_ RTR  --- 0 AODV 48 [0 ffffffff 26 800] ------- [38:255 -1:255 29 0] [0x2 2 1 [0 0] [1 4]] (REQUEST)
r 1.003837568 _23_ RTR  --- 0 AODV 48 [0 ffffffff 26 800] ------- [38:255 -1:255 29 0] [0x2 2 1 [0 0] [1 4]] (REQUEST)
r 1.003837572 _69_ RTR  --- 0 AODV 48 [0 ffffffff 26 800] ------- [38:255 -1:255 29 0] [0x2 2 1 [0 0] [1 4]] (REQUEST)
r 1.003837577 _43_ RTR  --- 0 AODV 48 [0 ffffffff 26 800] ------- [38:255 -1:255 29 0] [0x2 2 1 [0 0] [1 4]] (REQUEST)
r 1.003837580 _1_ RTR  --- 0 AODV 48 [0 ffffffff 26 800] ------- [38:255 -1:255 29 0] [0x2 2 1 [0 0] [1 4]] (REQUEST)
r 1.003837647 _5_ RTR  --- 0 AODV 48 [0 ffffffff 26 800] ------- [38:255 -1:255 29 0] [0x2 2 1 [0 0] [1 4]] (REQUEST)
r 1.003837681 _12_ RTR  --- 0 AODV 48 [0 ffffffff 26 800] ------- [38:255 -1:255 29 0] [0x2 2 1 [0 0] [1 4]] (REQUEST)
r 1.003837689 _11_ RTR  --- 0 AODV 48 [0 ffffffff 26 800] ------- [38:255 -1:255 29 0] [0x2 2 1 [0 0] [1 4]] (REQUEST)
r 1.003837699 _8_ RTR  --- 0 AODV 48 [0 ffffffff 26 800] ------- [38:255 -1:255 29 0] [0x2 2 1 [0 0] [1 4]] (REQUEST)
r 1.003837734 _34_ RTR  --- 0 AODV 48 [0 ffffffff 26 800] ------- [38:255 -1:255 29 0] [0x2 2 1 [0 0] [1 4]] (REQUEST)
s 1.003989617 _51_ RTR  --- 0 AODV 48 [0 ffffffff 1 800] ------- [51:255 -1:255 29 0] [0x2 2 1 [0 0] [1 4]] (REQUEST)
s 1.004499306 _61_ RTR  --- 0 AODV 48 [0 ffffffff 1 800] ------- [61:255 -1:255 29 0] [0x2 2 1 [0 0] [1 4]] (REQUEST)
s 1.004537987 _36_ RTR  --- 0 AODV 48 [0 ffffffff 1 800] ------- [36:255 -1:255 29 0] [0x2 2 1 [0 0] [1 4]] (REQUEST)
r 1.004815855 _62_ RTR  --- 0 AODV 48 [0 ffffffff 22 800] ------- [34:255 -1:255 29 0] [0x2 2 1 [0 0] [1 4]] (REQUEST)
r 1.004815936 _33_ RTR  --- 0 AODV 48 [0 ffffffff 22 800] ------- [34:255 -1:255 29 0] [0x2 2 1 [0 0] [1 4]] (REQUEST)
r 1.004815946 _65_ RTR  --- 0 AODV 48 [0 ffffffff 22 800] ------- [34:255 -1:255 29 0] [0x2 2 1 [0 0] [1 4]] (REQUEST)
r 1.004816050 _7_ RTR  --- 0 AODV 48 [0 ffffffff 22 800] ------- [34:255 -1:255 29 0] [0x2 2 1 [0 0] [1 4]] (REQUEST)
r 1.004816062 _61_ RTR  --- 0 AODV 48 [0 ffffffff 22 800] ------- [34:255 -1:255 29 0] [0x2 2 1 [0 0] [1 4]] (REQUEST)
r 1.004816066 _43_ RTR  --- 0 AODV 48 [0 ffffffff 22 800] ------- [34:255 -1:255 29 0] [0x2 2 1 [0 0] [1 4]] (REQUEST)
r 1.004816075 _58_ RTR  --- 0 AODV 48 [0 ffffffff 22 800] ------- [34:255 -1:255 29 0] [0x2 2 1 [0 0] [1 4]] (REQUEST)
r 1.004816327 _37_ RTR  --- 0 AODV 48 [0 ffffffff 22 800] ------- [34:255 -1:255 29 0] [0x2 2 1 [0 0] [1 4]] (REQUEST)
r 1.004816372 _17_ RTR  --- 0 AODV 48 [0 ffffffff 22 800] ------- [34:255 -1:255 29 0] [0x2 2 1 [0 0] [1 4]] (REQUEST)
r 1.004816380 _1_ RTR  --- 0 AODV 48 [0 ffffffff 22 800] ------- [34:255 -1:255 29 0] [0x2 2 1 [0 0] [1 4]] (REQUEST)
r 1.004816380 _10_ RTR  --- 0 AODV 48 [0 ffffffff 22 800] ------- [34:255 -1:255 29 0] [0x2 2 1 [0 0] [1 4]] (REQUEST)
r 1.004816394 _20_ RTR  --- 0 AODV 48 [0 ffffffff 22 800] ------- [34:255 -1:255 29 0] [0x2 2 1 [0 0] [1 4]] (REQUEST)
r 1.004816461 _11_ RTR  --- 0 AODV 48 [0 ffffffff 22 800] ------- [34:255 -1:255 29 0] [0x2 2 1 [0 0] [1 4]] (REQUEST)
r 1.004816511 _60_ RTR  --- 0 AODV 48 [0 ffffffff 22 800] ------- [34:255 -1:255 29 0] [0x2 2 1 [0 0] [1 4]] (REQUEST)
r 1.004816535 _15_ RTR  --- 0 AODV 48 [0 ffffffff 22 800] ------- [34:255 -1:255 29 0] [0x2 2 1 [0 0] [1 4]] (REQUEST)
r 1.004816541 _38_ RTR  --- 0 AODV 48 [0 ffffffff 22 800] ------- [34:255 -1:255 29 0] [0x2 2 1 [0 0] [1 4]] (REQUEST)
r 1.004816550 _44_ RTR  --- 0 AODV 48 [0 ffffffff 22 800] ------- [34:255 -1:255 29 0] [0x2 2 1 [0 0] [1 4]] (REQUEST)
s 1.004896115 _25_ RTR  --- 0 AODV 48 [0 ffffffff 1 800] ------- [25:255 -1:255 29 0] [0x2 2 1 [0 0] [1 4]] (REQUEST)
s 1.005495640 _58_ RTR  --- 0 AODV 48 [0 ffffffff 1 800] ------- [58:255 -1:255 29 0] [0x2 2 1 [0 0] [1 4]] (REQUEST)
s 1.005645175 _62_ RTR  --- 0 AODV 48 [0 ffffffff 1 800] ------- [62:255 -1:255 29 0] [0x2 2 1 [0 0] [1 4]] (REQUEST)
s 1.005711221 _23_ RTR  --- 0 AODV 48 [0 ffffffff 26 800] ------- [23:255 -1:255 28 0] [0x2 3 1 [0 0] [1 4]] (REQUEST)
s 1.005819956 _5_ RTR  --- 0 AODV 48 [0 ffffffff 1 800] ------- [5:255 -1:255 29 0] [0x2 2 1 [0 0] [1 4]] (REQUEST)
r 1.005854168 _33_ RTR  --- 0 AODV 48 [0 ffffffff 7 800] ------- [7:255 -1:255 29 0] [0x2 2 1 [0 0] [1 4]] (REQUEST)
r 1.005854173 _65_ RTR  --- 0 AODV 48 [0 ffffffff 7 800] ------- [7:255 -1:255 29 0] [0x2 2 1 [0 0] [1 4]] (REQUEST)
r 1.005854249 _62_ RTR  --- 0 AODV 48 [0 ffffffff 7 800] ------- [7:255 -1:255 29 0] [0x2 2 1 [0 0] [1 4]] (REQUEST)
r 1.005854312 _58_ RTR  --- 0 AODV 48 [0 ffffffff 7 800] ------- [7:255 -1:255 29 0] [0x2 2 1 [0 0] [1 4]] (REQUEST)
r 1.005854365 _34_ RTR  --- 0 AODV 48 [0 ffffffff 7 800] ------- [7:255 -1:255 29 0] [0x2 2 1 [0 0] [1 4]] (REQUEST)
r 1.005854389 _17_ RTR  --- 0 AODV 48 [0 ffffffff 7 800] ------- [7:255 -1:255 29 0] [0x2 2 1 [0 0] [1 4]] (REQUEST)
r 1.005854447 _10_ RTR  --- 0 AODV 48 [0 ffffffff 7 800] ------- [7:255 -1:255 29 0] [0x2 2 1 [0 0] [1 4]] (REQUEST)
r 1.005854564 _61_ RTR  --- 0 AODV 48 [0 ffffffff 7 800] ------- [7:255 -1:255 29 0] [0x2 2 1 [0 0] [1 4]] (REQUEST)
r 1.005854574 _1_ RTR  --- 0 AODV 48 [0 ffffffff 7 800] ------- [7:255 -1:255 29 0] [0x2 2 1 [0 0] [1 4]] (REQUEST)
r 1.005854607 _11_ RTR  --- 0 AODV 48 [0 ffffffff 7 800] ------- [7:255 -1:255 29 0] [0x2 2 1 [0 0] [1 4]] (REQUEST)
r 1.005854646 _60_ RTR  --- 0 AODV 48 [0 ffffffff 7 800] ------- [7:255 -1:255 29 0] [0x2 2 1 [0 0] [1 4]] (REQUEST)
r 1.005854647 _20_ RTR  --- 0 AODV 48 [0 ffffffff 7 800] ------- [7:255 -1:255 29 0] [0x2 2 1 [0 0] [1 4]] (REQUEST)
r 1.005854684 _43_ RTR  --- 0 AODV 48 [0 ffffffff 7 800] ------- [7:255 -1:255 29 0] [0x2 2 1 [0 0] [1 4]] (REQUEST)
r 1.005854705 _16_ RTR  --- 0 AODV 48 [0 ffffffff 7 800] ------- [7:255 -1:255 29 0] [0x2 2 1 [0 0] [1 4]] (REQUEST)
r 1.005854771 _15_ RTR  --- 0 AODV 48 [0 ffffffff 7 800] ------- [7:255 -1:255 29 0] [0x2 2 1 [0 0] [1 4]] (REQUEST)
r 1.005854783 _5_ RTR  --- 0 AODV 48 [0 ffffffff 7 800] ------- [7:255 -1:255 29 0] [0x2 2 1 [0 0] [1 4]] (REQUEST)
r 1.005854783 _63_ RTR  --- 0 AODV 48 [0 ffffffff 7 800] ------- [7:255 -1:255 29 0] [0x2 2 1 [0 0] [1 4]] (REQUEST)
r 1.005854803 _37_ RTR  --- 0 AODV 48 [0 ffffffff 7 800] ------- [7:255 -1:255 29 0] [0x2 2 1 [0 0] [1 4]] (REQUEST)
r 1.005854825 _3_ RTR  --- 0 AODV 48 [0 ffffffff 7 800] ------- [7:255 -1:255 29 0] [0x2 2 1 [0 0] [1 4]] (REQUEST)
r 1.005854829 _50_ RTR  --- 0 AODV 48 [0 ffffffff 7 800] ------- [7:255 -1:255 29 0] [0x2 2 1 [0 0] [1 4]] (REQUEST)
r 1.005854855 _54_ RTR  --- 0 AODV 48 [0 ffffffff 7 800] ------- [7:255 -1:255 29 0] [0x2 2 1 [0 0] [1 4]] (REQUEST)
r 1.005854872 _26_ RTR  --- 0 AODV 48 [0 ffffffff 7 800] ------- [7:255 -1:255 29 0] [0x2 2 1 [0 0] [1 4]] (REQUEST)
s 1.006047546 _60_ RTR  --- 0 AODV 48 [0 ffffffff 22 800] ------- [60:255 -1:255 28 0] [0x2 3 1 [0 0] [1 4]] (REQUEST)
s 1.006069967 _31_ RTR  --- 0 AODV 48 [0 ffffffff 1 800] ------- [31:255 -1:255 29 0] [0x2 2 1 [0 0] [1 4]] (REQUEST)
s 1.006130358 _63_ RTR  --- 0 AODV 48 [0 ffffffff 7 800] ------- [63:255 -1:255 28 0] [0x2 3 1 [0 0] [1 4]] (REQUEST)
s 1.006595276 _43_ RTR  --- 0 AODV 48 [0 ffffffff 1 800] ------- [43:255 -1:255 29 0] [0x2 2 1 [0 0] [1 4]] (REQUEST)
r 1.006752331 _33_ RTR  --- 0 AODV 48 [0 ffffffff 3e 800] ------- [62:255 -1:255 29 0] [0x2 2 1 [0 0] [1 4]] (REQUEST)
r 1.006752340 _65_ RTR  --- 0 AODV 48 [0 ffffffff 3e 800] ------- [62:255 -1:255 29 0] [0x2 2 1 [0 0] [1 4]] (REQUEST)
r 1.006752370 _34_ RTR  --- 0 AODV 48 [0 ffffffff 3e 800] ------- [62:255 -1:255 29 0] [0x2 2 1 [0 0] [1 4]] (REQUEST)
r 1.006752449 _7_ RTR  --- 0 AODV 48 [0 ffffffff 3e 800] ------- [62:255 -1:255 29 0] [0x2 2 1 [0 0] [1 4]] (REQUEST)
r 1.006752499 _58_ RTR  --- 0 AODV 48 [0 ffffffff 3e 800] ------- [62:255 -1:255 29 0] [0x2 2 1 [0 0] [1 4]] (REQUEST)
r 1.006752650 _61_ RTR  --- 0 AODV 48 [0 ffffffff 3e 800] ------- [62:255 -1:255 29 0] [0x2 2 1 [0 0] [1 4]] (REQUEST)
r 1.006752701 _43_ RTR  --- 0 AODV 48 [0 ffffffff 3e 800] ------- [62:255 -1:255 29 0] [0x2 2 1 [0 0] [1 4]] (REQUEST)
r 1.006752780 _10_ RTR  --- 0 AODV 48 [0 ffffffff 3e 800] ------- [62:255 -1:255 29 0] [0x2 2 1 [0 0] [1 4]] (REQUEST)
r 1.006752782 _17_ RTR  --- 0 AODV 48 [0 ffffffff 3e 800] ------- [62:255 -1:255 29 0] [0x2 2 1 [0 0] [1 4]] (REQUEST)
r 1.006752842 _20_ RTR  --- 0 AODV 48 [0 ffffffff 3e 800] ------- [62:255 -1:255 29 0] [0x2 2 1 [0 0] [1 4]] (REQUEST)
r 1.006752857 _1_ RTR  --- 0 AODV 48 [0 ffffffff 3e 800] ------- [62:255 -1:255 29 0] [0x2 2 1 [0 0] [1 4]] (REQUEST)
r 1.006752912 _37_ RTR  --- 0 AODV 48 [0 ffffffff 3e 800] ------- [62:255 -1:255 29 0] [0x2 2 1 [0 0] [1 4]] (REQUEST)
r 1.006752922 _11_ RTR  --- 0 AODV 48 [0 ffffffff 3e 800] ------- [62:255 -1:255 29 0] [0x2 2 1 [0 0] [1 4]] (REQUEST)
r 1.006752927 _60_ RTR  --- 0 AODV 48 [0 ffffffff 3e 800] ------- [62:255 -1:255 29 0] [0x2 2 1 [0 0] [1 4]] (REQUEST)
r 1.006752993 _16_ RTR  --- 0 AODV 48 [0 ffffffff 3e 800] ------- [62:255 -1:255 29 0] [0x2 2 1 [0 0] [1 4]] (REQUEST)
r 1.006753032 _15_ RTR  --- 0 AODV 48 [0 ffffffff 3e 800] ------- [62:255 -1:255 29 0] [0x2 2 1 [0 0] [1 4]] (REQUEST)
r 1.006753079 _5_ RTR  --- 0 AODV 48 [0 ffffffff 3e 800] ------- [62:255 -1:255 29 0] [0x2 2 1 [0 0] [1 4]] (REQUEST)
r 1.007650995 _16_ RTR  --- 0 AODV 48 [0 ffffffff 3c 800] ------- [60:255 -1:255 28 0] [0x2 3 1 [0 0] [1 4]] (REQUEST)
r 1.007651169 _10_ RTR  --- 0 AODV 48 [0 ffffffff 3c 800] ------- [60:255 -1:255 28 0] [0x2 3 1 [0 0] [1 4]] (REQUEST)
r 1.007651199 _20_ RTR  --- 0 AODV 48 [0 ffffffff 3c 800] ------- [60:255 -1:255 28 0] [0x2 3 1 [0 0] [1 4]] (REQUEST)
r 1.007651363 _58_ RTR  --- 0 AODV 48 [0 ffffffff 3c 800] ------- [60:255 -1:255 28 0] [0x2 3 1 [0 0] [1 4]] (REQUEST)
r 1.007651367 _24_ RTR  --- 0 AODV 48 [0 ffffffff 3c 800] ------- [60:255 -1:255 28 0] [0x2 3 1 [0 0] [1 4]] (REQUEST)
r 1.007651379 _28_ RTR  --- 0 AODV 48 [0 ffffffff 3c 800] ------- [60:255 -1:255 28 0] [0x2 3 1 [0 0] [1 4]] (REQUEST)
r 1.007651416 _41_ RTR  --- 0 AODV 48 [0 ffffffff 3c 800] ------- [60:255 -1:255 28 0] [0x2 3 1 [0 0] [1 4]] (REQUEST)
r 1.007651523 _7_ RTR  --- 0 AODV 48 [0 ffffffff 3c 800] ------- [60:255 -1:255 28 0] [0x2 3 1 [0 0] [1 4]] (REQUEST)
r 1.007651530 _65_ RTR  --- 0 AODV 48 [0 ffffffff 3c 800] ------- [60:255 -1:255 28 0] [0x2 3 1 [0 0] [1 4]] (REQUEST)
r 1.007651556 _33_ RTR  --- 0 AODV 48 [0 ffffffff 3c 800] ------- [60:255 -1:255 28 0] [0x2 3 1 [0 0] [1 4]] (REQUEST)
r 1.007651577 _63_ RTR  --- 0 AODV 48 [0 ffffffff 3c 800] ------- [60:255 -1:255 28 0] [0x2 3 1 [0 0] [1 4]] (REQUEST)
r 1.007651582 _2_ RTR  --- 0 AODV 48 [0 ffffffff 3c 800] ------- [60:255 -1:255 28 0] [0x2 3 1 [0 0] [1 4]] (REQUEST)
r 1.007651604 _62_ RTR  --- 0 AODV 48 [0 ffffffff 3c 800] ------- [60:255 -1:255 28 0] [0x2 3 1 [0 0] [1 4]] (REQUEST)
r 1.007651628 _17_ RTR  --- 0 AODV 48 [0 ffffffff 3c 800] ------- [60:255 -1:255 28 0] [0x2 3 1 [0 0] [1 4]] (REQUEST)
r 1.007651654 _18_ RTR  --- 0 AODV 48 [0 ffffffff 3c 800] ------- [60:255 -1:255 28 0] [0x2 3 1 [0 0] [1 4]] (REQUEST)
r 1.007651662 _55_ RTR  --- 0 AODV 48 [0 ffffffff 3c 800] ------- [60:255 -1:255 28 0] [0x2 3 1 [0 0] [1 4]] (REQUEST)
r 1.007651690 _54_ RTR  --- 0 AODV 48 [0 ffffffff 3c 800] ------- [60:255 -1:255 28 0] [0x2 3 1 [0 0] [1 4]] (REQUEST)
r 1.007651699 _46_ RTR  --- 0 AODV 48 [0 ffffffff 3c 800] ------- [60:255 -1:255 28 0] [0x2 3 1 [0 0] [1 4]] (REQUEST)
r 1.007651711 _66_ RTR  --- 0 AODV 48 [0 ffffffff 3c 800] ------- [60:255 -1:255 28 0] [0x2 3 1 [0 0] [1 4]] (REQUEST)
s 1.007797154 _73_ RTR  --- 0 AODV 48 [0 ffffffff 1 800] ------- [73:255 -1:255 29 0] [0x2 2 1 [0 0] [1 4]] (REQUEST)
s 1.007809252 _33_ RTR  --- 0 AODV 48 [0 ffffffff 1 800] ------- [33:255 -1:255 29 0] [0x2 2 1 [0 0] [1 4]] (REQUEST)
s 1.008152988 _18_ RTR  --- 0 AODV 48 [0 ffffffff 3c 800] ------- [18:255 -1:255 27 0] [0x2 4 1 [0 0] [1 4]] (REQUEST)
s 1.008173022 _20_ RTR  --- 0 AODV 48 [0 ffffffff 22 800] ------- [20:255 -1:255 28 0] [0x2 3 1 [0 0] [1 4]] (REQUEST)
r 1.008235942 _57_ RTR  --- 0 AODV 48 [0 ffffffff 17 800] ------- [23:255 -1:255 28 0] [0x2 3 1 [0 0] [1 4]] (REQUEST)
r 1.008236030 _8_ RTR  --- 0 AODV 48 [0 ffffffff 17 800] ------- [23:255 -1:255 28 0] [0x2 3 1 [0 0] [1 4]] (REQUEST)
r 1.008236068 _6_ RTR  --- 0 AODV 48 [0 ffffffff 17 800] ------- [23:255 -1:255 28 0] [0x2 3 1 [0 0] [1 4]] (REQUEST)
s 1.008331891 _12_ RTR  --- 0 AODV 48 [0 ffffffff 1 800] ------- [12:255 -1:255 29 0] [0x2 2 1 [0 0] [1 4]] (REQUEST)
s 1.008564986 _41_ RTR  --- 0 AODV 48 [0 ffffffff 3c 800] ------- [41:255 -1:255 27 0] [0x2 4 1 [0 0] [1 4]] (REQUEST)
r 1.008849690 _54_ RTR  --- 0 AODV 48 [0 ffffffff 3f 800] ------- [63:255 -1:255 28 0] [0x2 3 1 [0 0] [1 4]] (REQUEST)
r 1.008849880 _21_ RTR  --- 0 AODV 48 [0 ffffffff 3f 800] ------- [63:255 -1:255 28 0] [0x2 3 1 [0 0] [1 4]] (REQUEST)
r 1.008849996 _74_ RTR  --- 0 AODV 48 [0 ffffffff 3f 800] ------- [63:255 -1:255 28 0] [0x2 3 1 [0 0] [1 4]] (REQUEST)
r 1.008850056 _18_ RTR  --- 0 AODV 48 [0 ffffffff 3f 800] ------- [63:255 -1:255 28 0] [0x2 3 1 [0 0] [1 4]] (REQUEST)
r 1.008850075 _17_ RTR  --- 0 AODV 48 [0 ffffffff 3f 800] ------- [63:255 -1:255 28 0] [0x2 3 1 [0 0] [1 4]] (REQUEST)
r 1.008850083 _10_ RTR  --- 0 AODV 48 [0 ffffffff 3f 800] ------- [63:255 -1:255 28 0] [0x2 3 1 [0 0] [1 4]] (REQUEST)
r 1.008850216 _16_ RTR  --- 0 AODV 48 [0 ffffffff 3f 800] ------- [63:255 -1:255 28 0] [0x2 3 1 [0 0] [1 4]] (REQUEST)
r 1.008850226 _60_ RTR  --- 0 AODV 48 [0 ffffffff 3f 800] ------- [63:255 -1:255 28 0] [0x2 3 1 [0 0] [1 4]] (REQUEST)
r 1.008850229 _39_ RTR  --- 0 AODV 48 [0 ffffffff 3f 800] ------- [63:255 -1:255 28 0] [0x2 3 1 [0 0] [1 4]] (REQUEST)
r 1.008850251 _46_ RTR  --- 0 AODV 48 [0 ffffffff 3f 800] ------- [63:255 -1:255 28 0] [0x2 3 1 [0 0] [1 4]] (REQUEST)
r 1.008850310 _7_ RTR  --- 0 AODV 48 [0 ffffffff 3f 800] ------- [63:255 -1:255 28 0] [0x2 3 1 [0 0] [1 4]] (REQUEST)
r 1.008850319 _2_ RTR  --- 0 AODV 48 [0 ffffffff 3f 800] ------- [63:255 -1:255 28 0] [0x2 3 1 [0 0] [1 4]] (REQUEST)
r 1.008850394 _58_ RTR  --- 0 AODV 48 [0 ffffffff 3f 800] ------- [63:255 -1:255 28 0] [0x2 3 1 [0 0] [1 4]] (REQUEST)
s 1.009128025 _54_ RTR  --- 0 AODV 48 [0 ffffffff 7 800] ------- [54:255 -1:255 28 0] [0x2 3 1 [0 0] [1 4]] (REQUEST)
s 1.009399874 _26_ RTR  --- 0 AODV 48 [0 ffffffff 1 800] ------- [26:255 -1:255 29 0] [0x2 2 1 [0 0] [1 4]] (REQUEST)
s 1.009438646 _24_ RTR  --- 0 AODV 48 [0 ffffffff 3c 800] ------- [24:255 -1:255 27 0] [0x2 4 1 [0 0] [1 4]] (REQUEST)
s 1.009478981 _59_ RTR  --- 0 AODV 48 [0 ffffffff 1 800] ------- [59:255 -1:255 29 0] [0x2 2 1 [0 0] [1 4]] (REQUEST)
s 1.009573199 _17_ RTR  --- 0 AODV 48 [0 ffffffff 1 800] ------- [17:255 -1:255 29 0] [0x2 2 1 [0 0] [1 4]] (REQUEST)
s 1.009771759 _50_ RTR  --- 0 AODV 48 [0 ffffffff 1 800] ------- [50:255 -1:255 29 0] [0x2 2 1 [0 0] [1 4]] (REQUEST)
r 1.009948264 _46_ RTR  --- 0 AODV 48 [0 ffffffff 12 800] ------- [18:255 -1:255 27 0] [0x2 4 1 [0 0] [1 4]] (REQUEST)
r 1.009948410 _2_ RTR  --- 0 AODV 48 [0 ffffffff 12 800] ------- [18:255 -1:255 27 0] [0x2 4 1 [0 0] [1 4]] (REQUEST)
r 1.009948517 _21_ RTR  --- 0 AODV 48 [0 ffffffff 12 800] ------- [18:255 -1:255 27 0] [0x2 4 1 [0 0] [1 4]] (REQUEST)
r 1.009948534 _74_ RTR  --- 0 AODV 48 [0 ffffffff 12 800] ------- [18:255 -1:255 27 0] [0x2 4 1 [0 0] [1 4]] (REQUEST)
r 1.009948536 _63_ RTR  --- 0 AODV 48 [0 ffffffff 12 800] ------- [18:255 -1:255 27 0] [0x2 4 1 [0 0] [1 4]] (REQUEST)
r 1.009948577 _54_ RTR  --- 0 AODV 48 [0 ffffffff 12 800] ------- [18:255 -1:255 27 0] [0x2 4 1 [0 0] [1 4]] (REQUEST)
r 1.009948732 _16_ RTR  --- 0 AODV 48 [0 ffffffff 12 800] ------- [18:255 -1:255 27 0] [0x2 4 1 [0 0] [1 4]] (REQUEST)
r 1.009948743 _24_ RTR  --- 0 AODV 48 [0 ffffffff 12 800] ------- [18:255 -1:255 27 0] [0x2 4 1 [0 0] [1 4]] (REQUEST)
r 1.009948784 _60_ RTR  --- 0 AODV 48 [0 ffffffff 12 800] ------- [18:255 -1:255 27 0] [0x2 4 1 [0 0] [1 4]] (REQUEST)
r 1.009948802 _10_ RTR  --- 0 AODV 48 [0 ffffffff 12 800] ------- [18:255 -1:255 27 0] [0x2 4 1 [0 0] [1 4]] (REQUEST)
r 1.009948876 _41_ RTR  --- 0 AODV 48 [0 ffffffff 12 800] ------- [18:255 -1:255 27 0] [0x2 4 1 [0 0] [1 4]] (REQUEST)
s 1.010005878 _65_ RTR  --- 0 AODV 48 [0 ffffffff 1 800] ------- [65:255 -1:255 29 0] [0x2 2 1 [0 0] [1 4]] (REQUEST)
s 1.010029497 _39_ RTR  --- 0 AODV 48 [0 ffffffff 1 800] ------- [39:255 -1:255 29 0] [0x2 2 1 [0 0] [1 4]] (REQUEST)
s 1.010111578 _16_ RTR  --- 0 AODV 48 [0 ffffffff 7 800] ------- [16:255 -1:255 28 0] [0x2 3 1 [0 0] [1 4]] (REQUEST)
r 1.010133518 _53_ RTR  --- 0 AODV 48 [0 ffffffff 1f 800] ------- [31:255 -1:255 29 0] [0x2 2 1 [0 0] [1 4]] (REQUEST)
r 1.010133523 _12_ RTR  --- 0 AODV 48 [0 ffffffff 1f 800] ------- [31:255 -1:255 29 0] [0x2 2 1 [0 0] [1 4]] (REQUEST)
r 1.010133740 _0_ RTR  --- 0 AODV 48 [0 ffffffff 1f 800] ------- [31:255 -1:255 29 0] [0x2 2 1 [0 0] [1 4]] (REQUEST)
s 1.010133740 _0_ RTR  --- 0 AODV 44 [0 0 0 0] ------- [0:255 1:255 30 31] [0x4 1 [0 4] 10.000000] (REPLY)
r 1.010133764 _59_ RTR  --- 0 AODV 48 [0 ffffffff 1f 800] ------- [31:255 -1:255 29 0] [0x2 2 1 [0 0] [1 4]] (REQUEST)
r 1.010133817 _38_ RTR  --- 0 AODV 48 [0 ffffffff 1f 800] ------- [31:255 -1:255 29 0] [0x2 2 1 [0 0] [1 4]] (REQUEST)
r 1.010134020 _32_ RTR  --- 0 AODV 48 [0 ffffffff 1f 800] ------- [31:255 -1:255 29 0] [0x2 2 1 [0 0] [1 4]] (REQUEST)
s 1.010766654 _10_ RTR  --- 0 AODV 48 [0 ffffffff 22 800] ------- [10:255 -1:255 28 0] [0x2 3 1 [0 0] [1 4]] (REQUEST)
r 1.011071775 _31_ RTR  --- 0 AODV 48 [0 ffffffff c 800] ------- [12:255 -1:255 29 0] [0x2 2 1 [0 0] [1 4]] (REQUEST)
r 1.011071783 _0_ RTR  --- 0 AODV 48 [0 ffffffff c 800] ------- [12:255 -1:255 29 0] [0x2 2 1 [0 0] [1 4]] (REQUEST)
r 1.011071800 _53_ RTR  --- 0 AODV 48 [0 ffffffff c 800] ------- [12:255 -1:255 29 0] [0x2 2 1 [0 0] [1 4]] (REQUEST)
r 1.011071999 _36_ RTR  --- 0 AODV 48 [0 ffffffff c 800] ------- [12:255 -1:255 29 0] [0x2 2 1 [0 0] [1 4]] (REQUEST)
r 1.011072039 _26_ RTR  --- 0 AODV 48 [0 ffffffff c 800] ------- [12:255 -1:255 29 0] [0x2 2 1 [0 0] [1 4]] (REQUEST)
r 1.011072143 _15_ RTR  --- 0 AODV 48 [0 ffffffff c 800] ------- [12:255 -1:255 29 0] [0x2 2 1 [0 0] [1 4]] (REQUEST)
r 1.011072186 _5_ RTR  --- 0 AODV 48 [0 ffffffff c 800] ------- [12:255 -1:255 29 0] [0x2 2 1 [0 0] [1 4]] (REQUEST)
r 1.011072201 _51_ RTR  --- 0 AODV 48 [0 ffffffff c 800] ------- [12:255 -1:255 29 0] [0x2 2 1 [0 0] [1 4]] (REQUEST)
r 1.011072231 _25_ RTR  --- 0 AODV 48 [0 ffffffff c 800] ------- [12:255 -1:255 29 0] [0x2 2 1 [0 0] [1 4]] (REQUEST)
r 1.011072235 _59_ RTR  --- 0 AODV 48 [0 ffffffff c 800] ------- [12:255 -1:255 29 0] [0x2 2 1 [0 0] [1 4]] (REQUEST)
r 1.011072276 _38_ RTR  --- 0 AODV 48 [0 ffffffff c 800] ------- [12:255 -1:255 29 0] [0x2 2 1 [0 0] [1 4]] (REQUEST)
r 1.011072284 _73_ RTR  --- 0 AODV 48 [0 ffffffff c 800] ------- [12:255 -1:255 29 0] [0x2 2 1 [0 0] [1 4]] (REQUEST)
r 1.011072346 _1_ RTR  --- 0 AODV 48 [0 ffffffff c 800] ------- [12:255 -1:255 29 0] [0x2 2 1 [0 0] [1 4]] (REQUEST)
r 1.011146876 _41_ RTR  --- 0 AODV 48 [0 ffffffff 18 800] ------- [24:255 -1:255 27 0] [0x2 4 1 [0 0] [1 4]] (REQUEST)
r 1.011146964 _28_ RTR  --- 0 AODV 48 [0 ffffffff 18 800] ------- [24:255 -1:255 27 0] [0x2 4 1 [0 0] [1 4]] (REQUEST)
r 1.011147125 _16_ RTR  --- 0 AODV 48 [0 ffffffff 18 800] ------- [24:255 -1:255 27 0] [0x2 4 1 [0 0] [1 4]] (REQUEST)
r 1.011147138 _55_ RTR  --- 0 AODV 48 [0 ffffffff 18 800] ------- [24:255 -1:255 27 0] [0x2 4 1 [0 0] [1 4]] (REQUEST)
r 1.011147153 _2_ RTR  --- 0 AODV 48 [0 ffffffff 18 800] ------- [24:255 -1:255 27 0] [0x2 4 1 [0 0] [1 4]] (REQUEST)
r 1.011147183 _60_ RTR  --- 0 AODV 48 [0 ffffffff 18 800] ------- [24:255 -1:255 27 0] [0x2 4 1 [0 0] [1 4]] (REQUEST)
r 1.011147242 _66_ RTR  --- 0 AODV 48 [0 ffffffff 18 800] ------- [24:255 -1:255 27 0] [0x2 4 1 [0 0] [1 4]] (REQUEST)
r 1.011147314 _20_ RTR  --- 0 AODV 48 [0 ffffffff 18 800] ------- [24:255 -1:255 27 0] [0x2 4 1 [0 0] [1 4]] (REQUEST)
r 1.011147348 _46_ RTR  --- 0 AODV 48 [0 ffffffff 18 800] ------- [24:255 -1:255 27 0] [0x2 4 1 [0 0] [1 4]] (REQUEST)
r 1.011147430 _18_ RTR  --- 0 AODV 48 [0 ffffffff 18 800] ------- [24:255 -1:255 27 0] [0x2 4 1 [0 0] [1 4]] (REQUEST)
r 1.011147433 _29_ RTR  --- 0 AODV 48 [0 ffffffff 18 800] ------- [24:255 -1:255 27 0] [0x2 4 1 [0 0] [1 4]] (REQUEST)
r 1.011147462 _4_ RTR  --- 0 AODV 48 [0 ffffffff 18 800] ------- [24:255 -1:255 27 0] [0x2 4 1 [0 0] [1 4]] (REQUEST)
s 1.011502789 _44_ RTR  --- 0 AODV 48 [0 ffffffff 22 800] ------- [44:255 -1:255 28 0] [0x2 3 1 [0 0] [1 4]] (REQUEST)
r 1.012030051 _26_ RTR  --- 0 AODV 48 [0 ffffffff 24 800] ------- [36:255 -1:255 29 0] [0x2 2 1 [0 0] [1 4]] (REQUEST)
r 1.012030176 _15_ RTR  --- 0 AODV 48 [0 ffffffff 24 800] ------- [36:255 -1:255 29 0] [0x2 2 1 [0 0] [1 4]] (REQUEST)
r 1.012030209 _53_ RTR  --- 0 AODV 48 [0 ffffffff 24 800] ------- [36:255 -1:255 29 0] [0x2 2 1 [0 0] [1 4]] (REQUEST)
r 1.012030296 _5_ RTR  --- 0 AODV 48 [0 ffffffff 24 800] ------- [36:255 -1:255 29 0] [0x2 2 1 [0 0] [1 4]] (REQUEST)
r 1.012030368 _1_ RTR  --- 0 AODV 48 [0 ffffffff 24 800] ------- [36:255 -1:255 29 0] [0x2 2 1 [0 0] [1 4]] (REQUEST)
r 1.012030423 _11_ RTR  --- 0 AODV 48 [0 ffffffff 24 800] ------- [36:255 -1:255 29 0] [0x2 2 1 [0 0] [1 4]] (REQUEST)
r 1.012030438 _31_ RTR  --- 0 AODV 48 [0 ffffffff 24 800] ------- [36:255 -1:255 29 0] [0x2 2 1 [0 0] [1 4]] (REQUEST)
r 1.012030468 _38_ RTR  --- 0 AODV 48 [0 ffffffff 24 800] ------- [36:255 -1:255 29 0] [0x2 2 1 [0 0] [1 4]] (REQUEST)
r 1.012030475 _59_ RTR  --- 0 AODV 48 [0 ffffffff 24 800] ------- [36:255 -1:255 29 0] [0x2 2 1 [0 0] [1 4]] (REQUEST)
r 1.012030475 _12_ RTR  --- 0 AODV 48 [0 ffffffff 24 800] ------- [36:255 -1:255 29 0] [0x2 2 1 [0 0] [1 4]] (REQUEST)
r 1.012030523 _37_ RTR  --- 0 AODV 48 [0 ffffffff 24 800] ------- [36:255 -1:255 29 0] [0x2 2 1 [0 0] [1 4]] (REQUEST)
r 1.012030570 _73_ RTR  --- 0 AODV 48 [0 ffffffff 24 800] ------- [36:255 -1:255 29 0] [0x2 2 1 [0 0] [1 4]] (REQUEST)
r 1.012030641 _61_ RTR  --- 0 AODV 48 [0 ffffffff 24 800] ------- [36:255 -1:255 29 0] [0x2 2 1 [0 0] [1 4]] (REQUEST)