s 1.000000000 _1_ AGT  --- 0 cbr 1000 [0 0 0 0] ------- [1:0 0:0 32 0] [0] 0 0
r 1.000000000 _1_ RTR  --- 0 cbr 1000 [0 0 0 0] ------- [1:0 0:0 32 0] [0] 0 0
s 1.000000000 _1_ AGT  --- 1 cbr 24 [0 0 0 0] ------- [1:0 0:0 32 0] [1] 0 0
r 1.000000000 _1_ RTR  --- 1 cbr 24 [0 0 0 0] ------- [1:0 0:0 32 0] [1] 0 0
s 1.000000000 _1_ RTR  --- 0 AODV 48 [0 0 0 0] ------- [1:255 -1:255 30 0] [0x2 1 1 [0 0] [1 4]] (REQUEST)
r 1.001408336 _51_ RTR  --- 0 AODV 48 [0 ffffffff 1 800] ------- [1:255 -1:255 30 0] [0x2 1 1 [0 0] [1 4]] (REQUEST)
r 1.001408400 _27_ RTR  --- 0 AODV 48 [0 ffffffff 1 800] ------- [1:255 -1:255 30 0] [0x2 1 1 [0 0] [1 4]] (REQUEST)
r 1.001408481 _58_ RTR  --- 0 AODV 48 [0 ffffffff 1 800] ------- [1:255 -1:255 30 0] [0x2 1 1 [0 0] [1 4]] (REQUEST)
r 1.001408485 _39_ RTR  --- 0 AODV 48 [0 ffffffff 1 800] ------- [1:255 -1:255 30 0] [0x2 1 1 [0 0] [1 4]] (REQUEST)
r 1.001408513 _18_ RTR  --- 0 AODV 48 [0 ffffffff 1 800] ------- [1:255 -1:255 30 0] [0x2 1 1 [0 0] [1 4]] (REQUEST)
r 1.001408540 _30_ RTR  --- 0 AODV 48 [0 ffffffff 1 800] ------- [1:255 -1:255 30 0] [0x2 1 1 [0 0] [1 4]] (REQUEST)
r 1.001408623 _43_ RTR  --- 0 AODV 48 [0 ffffffff 1 800] ------- [1:255 -1:255 30 0] [0x2 1 1 [0 0] [1 4]] (REQUEST)
r 1.001408632 _6_ RTR  --- 0 AODV 48 [0 ffffffff 1 800] ------- [1:255 -1:255 30 0] [0x2 1 1 [0 0] [1 4]] (REQUEST)
r 1.001408633 _12_ RTR  --- 0 AODV 48 [0 ffffffff 1 800] ------- [1:255 -1:255 30 0] [0x2 1 1 [0 0] [1 4]] (REQUEST)
r 1.001408644 _55_ RTR  --- 0 AODV 48 [0 ffffffff 1 800] ------- [1:255 -1:255 30 0] [0x2 1 1 [0 0] [1 4]] (REQUEST)
r 1.001408705 _10_ RTR  --- 0 AODV 48 [0 ffffffff 1 800] ------- [1:255 -1:255 30 0] [0x2 1 1 [0 0] [1 4]] (REQUEST)
r 1.001408726 _9_ RTR  --- 0 AODV 48 [0 ffffffff 1 800] ------- [1:255 -1:255 30 0] [0x2 1 1 [0 0] [1 4]] (REQUEST)
r 1.001408812 _48_ RTR  --- 0 AODV 48 [0 ffffffff 1 800] ------- [1:255 -1:255 30 0] [0x2 1 1 [0 0] [1 4]] (REQUEST)
r 1.001408813 _15_ RTR  --- 0 AODV 48 [0 ffffffff 1 800] ------- [1:255 -1:255 30 0] [0x2 1 1 [0 0] [1 4]] (REQUEST)
s 1.001550383 _51_ RTR  --- 0 AODV 48 [0 ffffffff 1 800] ------- [51:255 -1:255 29 0] [0x2 2 1 [0 0] [1 4]] (REQUEST)
s 1.001836671 _9_ RTR  --- 0 AODV 48 [0 ffffffff 1 800] ------- [9:255 -1:255 29 0] [0x2 2 1 [0 0] [1 4]] (REQUEST)
s 1.002289626 _27_ RTR  --- 0 AODV 48 [0 ffffffff 1 800] ------- [27:255 -1:255 29 0] [0x2 2 1 [0 0] [1 4]] (REQUEST)
s 1.002546895 _15_ RTR  --- 0 AODV 48 [0 ffffffff 1 800] ------- [15:255 -1:255 29 0] [0x2 2 1 [0 0] [1 4]] (REQUEST)
r 1.002738575 _18_ RTR  --- 0 AODV 48 [0 ffffffff 33 800] ------- [51:255 -1:255 29 0] [0x2 2 1 [0 0] [1 4]] (REQUEST)
r 1.002738616 _39_ RTR  --- 0 AODV 48 [0 ffffffff 33 800] ------- [51:255 -1:255 29 0] [0x2 2 1 [0 0] [1 4]] (REQUEST)
r 1.002738719 _1_ RTR  --- 0 AODV 48 [0 ffffffff 33 800] ------- [51:255 -1:255 29 0] [0x2 2 1 [0 0] [1 4]] (REQUEST)
r 1.002738970 _6_ RTR  --- 0 AODV 48 [0 ffffffff 33 800] ------- [51:255 -1:255 29 0] [0x2 2 1 [0 0] [1 4]] (REQUEST)
r 1.002738986 _27_ RTR  --- 0 AODV 48 [0 ffffffff 33 800] ------- [51:255 -1:255 29 0] [0x2 2 1 [0 0] [1 4]] (REQUEST)
r 1.002738999 _12_ RTR  --- 0 AODV 48 [0 ffffffff 33 800] ------- [51:255 -1:255 29 0] [0x2 2 1 [0 0] [1 4]] (REQUEST)
r 1.002739063 _30_ RTR  --- 0 AODV 48 [0 ffffffff 33 800] ------- [51:255 -1:255 29 0] [0x2 2 1 [0 0] [1 4]] (REQUEST)
r 1.002739078 _49_ RTR  --- 0 AODV 48 [0 ffffffff 33 800] ------- [51:255 -1:255 29 0] [0x2 2 1 [0 0] [1 4]] (REQUEST)
r 1.002739087 _55_ RTR  --- 0 AODV 48 [0 ffffffff 33 800] ------- [51:255 -1:255 29 0] [0x2 2 1 [0 0] [1 4]] (REQUEST)
r 1.002739155 _58_ RTR  --- 0 AODV 48 [0 ffffffff 33 800] ------- [51:255 -1:255 29 0] [0x2 2 1 [0 0] [1 4]] (REQUEST)
r 1.002739163 _3_ RTR  --- 0 AODV 48 [0 ffffffff 33 800] ------- [51:255 -1:255 29 0] [0x2 2 1 [0 0] [1 4]] (REQUEST)
r 1.002739174 _16_ RTR  --- 0 AODV 48 [0 ffffffff 33 800] ------- [51:255 -1:255 29 0] [0x2 2 1 [0 0] [1 4]] (REQUEST)
r 1.002739183 _48_ RTR  --- 0 AODV 48 [0 ffffffff 33 800] ------- [51:255 -1:255 29 0] [0x2 2 1 [0 0] [1 4]] (REQUEST)
r 1.002739188 _43_ RTR  --- 0 AODV 48 [0 ffffffff 33 800] ------- [51:255 -1:255 29 0] [0x2 2 1 [0 0] [1 4]] (REQUEST)
s 1.003050159 _10_ RTR  --- 0 AODV 48 [0 ffffffff 1 800] ------- [10:255 -1:255 29 0] [0x2 2 1 [0 0] [1 4]] (REQUEST)
s 1.003754641 _43_ RTR  --- 0 AODV 48 [0 ffffffff 1 800] ------- [43:255 -1:255 29 0] [0x2 2 1 [0 0] [1 4]] (REQUEST)
r 1.004117151 _30_ RTR  --- 0 AODV 48 [0 ffffffff 1b 800] ------- [27:255 -1:255 29 0] [0x2 2 1 [0 0] [1 4]] (REQUEST)
r 1.004117210 _43_ RTR  --- 0 AODV 48 [0 ffffffff 1b 800] ------- [27:255 -1:255 29 0] [0x2 2 1 [0 0] [1 4]] (REQUEST)
r 1.004117385 _1_ RTR  --- 0 AODV 48 [0 ffffffff 1b 800] ------- [27:255 -1:255 29 0] [0x2 2 1 [0 0] [1 4]] (REQUEST)
r 1.004117388 _12_ RTR  --- 0 AODV 48 [0 ffffffff 1b 800] ------- [27:255 -1:255 29 0] [0x2 2 1 [0 0] [1 4]] (REQUEST)
r 1.004117421 _6_ RTR  --- 0 AODV 48 [0 ffffffff 1b 800] ------- [27:255 -1:255 29 0] [0x2 2 1 [0 0] [1 4]] (REQUEST)
r 1.004117514 _48_ RTR  --- 0 AODV 48 [0 ffffffff 1b 800] ------- [27:255 -1:255 29 0] [0x2 2 1 [0 0] [1 4]] (REQUEST)
r 1.004117552 _9_ RTR  --- 0 AODV 48 [0 ffffffff 1b 800] ------- [27:255 -1:255 29 0] [0x2 2 1 [0 0] [1 4]] (REQUEST)
r 1.004117583 _39_ RTR  --- 0 AODV 48 [0 ffffffff 1b 800] ------- [27:255 -1:255 29 0] [0x2 2 1 [0 0] [1 4]] (REQUEST)
r 1.004117589 _51_ RTR  --- 0 AODV 48 [0 ffffffff 1b 800] ------- [27:255 -1:255 29 0] [0x2 2 1 [0 0] [1 4]] (REQUEST)
r 1.004117687 _18_ RTR  --- 0 AODV 48 [0 ffffffff 1b 800] ------- [27:255 -1:255 29 0] [0x2 2 1 [0 0] [1 4]] (REQUEST)
r 1.004117704 _58_ RTR  --- 0 AODV 48 [0 ffffffff 1b 800] ------- [27:255 -1:255 29 0] [0x2 2 1 [0 0] [1 4]] (REQUEST)
r 1.004117746 _15_ RTR  --- 0 AODV 48 [0 ffffffff 1b 800] ------- [27:255 -1:255 29 0] [0x2 2 1 [0 0] [1 4]] (REQUEST)
r 1.004117807 _10_ RTR  --- 0 AODV 48 [0 ffffffff 1b 800] ------- [27:255 -1:255 29 0] [0x2 2 1 [0 0] [1 4]] (REQUEST)
s 1.004499423 _12_ RTR  --- 0 AODV 48 [0 ffffffff 1 800] ------- [12:255 -1:255 29 0] [0x2 2 1 [0 0] [1 4]] (REQUEST)
s 1.004538131 _18_ RTR  --- 0 AODV 48 [0 ffffffff 1 800] ------- [18:255 -1:255 29 0] [0x2 2 1 [0 0] [1 4]] (REQUEST)
r 1.005075798 _15_ RTR  --- 0 AODV 48 [0 ffffffff 9 800] ------- [9:255 -1:255 29 0] [0x2 2 1 [0 0] [1 4]] (REQUEST)
r 1.005076053 _10_ RTR  --- 0 AODV 48 [0 ffffffff 9 800] ------- [9:255 -1:255 29 0] [0x2 2 1 [0 0] [1 4]] (REQUEST)
r 1.005076118 _27_ RTR  --- 0 AODV 48 [0 ffffffff 9 800] ------- [9:255 -1:255 29 0] [0x2 2 1 [0 0] [1 4]] (REQUEST)
r 1.005076130 _43_ RTR  --- 0 AODV 48 [0 ffffffff 9 800] ------- [9:255 -1:255 29 0] [0x2 2 1 [0 0] [1 4]] (REQUEST)
r 1.005076177 _58_ RTR  --- 0 AODV 48 [0 ffffffff 9 800] ------- [9:255 -1:255 29 0] [0x2 2 1 [0 0] [1 4]] (REQUEST)
r 1.005076219 _30_ RTR  --- 0 AODV 48 [0 ffffffff 9 800] ------- [9:255 -1:255 29 0] [0x2 2 1 [0 0] [1 4]] (REQUEST)
r 1.005076278 _1_ RTR  --- 0 AODV 48 [0 ffffffff 9 800] ------- [9:255 -1:255 29 0] [0x2 2 1 [0 0] [1 4]] (REQUEST)
s 1.005320042 _3_ RTR  --- 0 AODV 48 [0 ffffffff 33 800] ------- [3:255 -1:255 28 0] [0x2 3 1 [0 0] [1 4]] (REQUEST)
s 1.005820215 _58_ RTR  --- 0 AODV 48 [0 ffffffff 1 800] ------- [58:255 -1:255 29 0] [0x2 2 1 [0 0] [1 4]] (REQUEST)
r 1.006054337 _58_ RTR  --- 0 AODV 48 [0 ffffffff a 800] ------- [10:255 -1:255 29 0] [0x2 2 1 [0 0] [1 4]] (REQUEST)
r 1.006054383 _15_ RTR  --- 0 AODV 48 [0 ffffffff a 800] ------- [10:255 -1:255 29 0] [0x2 2 1 [0 0] [1 4]] (REQUEST)
r 1.006054488 _28_ RTR  --- 0 AODV 48 [0 ffffffff a 800] ------- [10:255 -1:255 29 0] [0x2 2 1 [0 0] [1 4]] (REQUEST)
r 1.006054524 _47_ RTR  --- 0 AODV 48 [0 ffffffff a 800] ------- [10:255 -1:255 29 0] [0x2 2 1 [0 0] [1 4]] (REQUEST)
r 1.006054526 _32_ RTR  --- 0 AODV 48 [0 ffffffff a 800] ------- [10:255 -1:255 29 0] [0x2 2 1 [0 0] [1 4]] (REQUEST)
r 1.006054553 _42_ RTR  --- 0 AODV 48 [0 ffffffff a 800] ------- [10:255 -1:255 29 0] [0x2 2 1 [0 0] [1 4]] (REQUEST)
r 1.006054555 _9_ RTR  --- 0 AODV 48 [0 ffffffff a 800] ------- [10:255 -1:255 29 0] [0x2 2 1 [0 0] [1 4]] (REQUEST)
r 1.006054734 _46_ RTR  --- 0 AODV 48 [0 ffffffff a 800] ------- [10:255 -1:255 29 0] [0x2 2 1 [0 0] [1 4]] (REQUEST)
r 1.006054754 _25_ RTR  --- 0 AODV 48 [0 ffffffff a 800] ------- [10:255 -1:255 29 0] [0x2 2 1 [0 0] [1 4]] (REQUEST)
r 1.006054758 _1_ RTR  --- 0 AODV 48 [0 ffffffff a 800] ------- [10:255 -1:255 29 0] [0x2 2 1 [0 0] [1 4]] (REQUEST)
r 1.006054772 _41_ RTR  --- 0 AODV 48 [0 ffffffff a 800] ------- [10:255 -1:255 29 0] [0x2 2 1 [0 0] [1 4]] (REQUEST)
r 1.006054806 _54_ RTR  --- 0 AODV 48 [0 ffffffff a 800] ------- [10:255 -1:255 29 0] [0x2 2 1 [0 0] [1 4]] (REQUEST)
r 1.006054854 _55_ RTR  --- 0 AODV 48 [0 ffffffff a 800] ------- [10:255 -1:255 29 0] [0x2 2 1 [0 0] [1 4]] (REQUEST)
r 1.006054854 _29_ RTR  --- 0 AODV 48 [0 ffffffff a 800] ------- [10:255 -1:255 29 0] [0x2 2 1 [0 0] [1 4]] (REQUEST)
r 1.006054875 _27_ RTR  --- 0 AODV 48 [0 ffffffff a 800] ------- [10:255 -1:255 29 0] [0x2 2 1 [0 0] [1 4]] (REQUEST)
s 1.006226489 _49_ RTR  --- 0 AODV 48 [0 ffffffff 33 800] ------- [49:255 -1:255 28 0] [0x2 3 1 [0 0] [1 4]] (REQUEST)
s 1.006826031 _16_ RTR  --- 0 AODV 48 [0 ffffffff 33 800] ------- [16:255 -1:255 28 0] [0x2 3 1 [0 0] [1 4]] (REQUEST)
r 1.006992620 _10_ RTR  --- 0 AODV 48 [0 ffffffff 3a 800] ------- [58:255 -1:255 29 0] [0x2 2 1 [0 0] [1 4]] (REQUEST)
r 1.006992743 _32_ RTR  --- 0 AODV 48 [0 ffffffff 3a 800] ------- [58:255 -1:255 29 0] [0x2 2 1 [0 0] [1 4]] (REQUEST)
r 1.006992763 _47_ RTR  --- 0 AODV 48 [0 ffffffff 3a 800] ------- [58:255 -1:255 29 0] [0x2 2 1 [0 0] [1 4]] (REQUEST)
r 1.006992818 _1_ RTR  --- 0 AODV 48 [0 ffffffff 3a 800] ------- [58:255 -1:255 29 0] [0x2 2 1 [0 0] [1 4]] (REQUEST)
r 1.006992880 _55_ RTR  --- 0 AODV 48 [0 ffffffff 3a 800] ------- [58:255 -1:255 29 0] [0x2 2 1 [0 0] [1 4]] (REQUEST)
r 1.006992886 _15_ RTR  --- 0 AODV 48 [0 ffffffff 3a 800] ------- [58:255 -1:255 29 0] [0x2 2 1 [0 0] [1 4]] (REQUEST)
r 1.006992927 _28_ RTR  --- 0 AODV 48 [0 ffffffff 3a 800] ------- [58:255 -1:255 29 0] [0x2 2 1 [0 0] [1 4]] (REQUEST)
r 1.006992962 _9_ RTR  --- 0 AODV 48 [0 ffffffff 3a 800] ------- [58:255 -1:255 29 0] [0x2 2 1 [0 0] [1 4]] (REQUEST)
r 1.006993055 _27_ RTR  --- 0 AODV 48 [0 ffffffff 3a 800] ------- [58:255 -1:255 29 0] [0x2 2 1 [0 0] [1 4]] (REQUEST)
r 1.006993069 _42_ RTR  --- 0 AODV 48 [0 ffffffff 3a 800] ------- [58:255 -1:255 29 0] [0x2 2 1 [0 0] [1 4]] (REQUEST)
r 1.006993093 _25_ RTR  --- 0 AODV 48 [0 ffffffff 3a 800] ------- [58:255 -1:255 29 0] [0x2 2 1 [0 0] [1 4]] (REQUEST)
r 1.006993102 _46_ RTR  --- 0 AODV 48 [0 ffffffff 3a 800] ------- [58:255 -1:255 29 0] [0x2 2 1 [0 0] [1 4]] (REQUEST)
r 1.006993109 _51_ RTR  --- 0 AODV 48 [0 ffffffff 3a 800] ------- [58:255 -1:255 29 0] [0x2 2 1 [0 0] [1 4]] (REQUEST)
r 1.006993156 _0_ RTR  --- 0 AODV 48 [0 ffffffff 3a 800] ------- [58:255 -1:255 29 0] [0x2 2 1 [0 0] [1 4]] (REQUEST)
s 1.006993156 _0_ RTR  --- 0 AODV 44 [0 0 0 0] ------- [0:255 1:255 30 58] [0x4 1 [0 4] 10.000000] (REPLY)
s 1.007146538 _42_ RTR  --- 0 AODV 48 [0 ffffffff a 800] ------- [42:255 -1:255 28 0] [0x2 3 1 [0 0] [1 4]] (REQUEST)
s 1.007797284 _6_ RTR  --- 0 AODV 48 [0 ffffffff 1 800] ------- [6:255 -1:255 29 0] [0x2 2 1 [0 0] [1 4]] (REQUEST)
s 1.007809488 _48_ RTR  --- 0 AODV 48 [0 ffffffff 1 800] ------- [48:255 -1:255 29 0] [0x2 2 1 [0 0] [1 4]] (REQUEST)
s 1.007928407 _25_ RTR  --- 0 AODV 48 [0 ffffffff a 800] ------- [25:255 -1:255 28 0] [0x2 3 1 [0 0] [1 4]] (REQUEST)
r 1.007951132 _9_ RTR  --- 0 AODV 48 [0 ffffffff f 800] ------- [15:255 -1:255 29 0] [0x2 2 1 [0 0] [1 4]] (REQUEST)
r 1.007951215 _10_ RTR  --- 0 AODV 48 [0 ffffffff f 800] ------- [15:255 -1:255 29 0] [0x2 2 1 [0 0] [1 4]] (REQUEST)
r 1.007951435 _58_ RTR  --- 0 AODV 48 [0 ffffffff f 800] ------- [15:255 -1:255 29 0] [0x2 2 1 [0 0] [1 4]] (REQUEST)
r 1.007951514 _42_ RTR  --- 0 AODV 48 [0 ffffffff f 800] ------- [15:255 -1:255 29 0] [0x2 2 1 [0 0] [1 4]] (REQUEST)
r 1.007951564 _28_ RTR  --- 0 AODV 48 [0 ffffffff f 800] ------- [15:255 -1:255 29 0] [0x2 2 1 [0 0] [1 4]] (REQUEST)
r 1.007951646 _27_ RTR  --- 0 AODV 48 [0 ffffffff f 800] ------- [15:255 -1:255 29 0] [0x2 2 1 [0 0] [1 4]] (REQUEST)
r 1.007951669 _54_ RTR  --- 0 AODV 48 [0 ffffffff f 800] ------- [15:255 -1:255 29 0] [0x2 2 1 [0 0] [1 4]] (REQUEST)
r 1.007951683 _47_ RTR  --- 0 AODV 48 [0 ffffffff f 800] ------- [15:255 -1:255 29 0] [0x2 2 1 [0 0] [1 4]] (REQUEST)
r 1.007951687 _32_ RTR  --- 0 AODV 48 [0 ffffffff f 800] ------- [15:255 -1:255 29 0] [0x2 2 1 [0 0] [1 4]] (REQUEST)
r 1.007951697 _43_ RTR  --- 0 AODV 48 [0 ffffffff f 800] ------- [15:255 -1:255 29 0] [0x2 2 1 [0 0] [1 4]] (REQUEST)
r 1.007951698 _1_ RTR  --- 0 AODV 48 [0 ffffffff f 800] ------- [15:255 -1:255 29 0] [0x2 2 1 [0 0] [1 4]] (REQUEST)
r 1.009149840 _30_ RTR  --- 0 AODV 48 [0 ffffffff 2b 800] ------- [43:255 -1:255 29 0] [0x2 2 1 [0 0] [1 4]] (REQUEST)
r 1.009149921 _27_ RTR  --- 0 AODV 48 [0 ffffffff 2b 800] ------- [43:255 -1:255 29 0] [0x2 2 1 [0 0] [1 4]] (REQUEST)
r 1.009150115 _12_ RTR  --- 0 AODV 48 [0 ffffffff 2b 800] ------- [43:255 -1:255 29 0] [0x2 2 1 [0 0] [1 4]] (REQUEST)
r 1.009150159 _48_ RTR  --- 0 AODV 48 [0 ffffffff 2b 800] ------- [43:255 -1:255 29 0] [0x2 2 1 [0 0] [1 4]] (REQUEST)
r 1.009150165 _6_ RTR  --- 0 AODV 48 [0 ffffffff 2b 800] ------- [43:255 -1:255 29 0] [0x2 2 1 [0 0] [1 4]] (REQUEST)
r 1.009150276 _9_ RTR  --- 0 AODV 48 [0 ffffffff 2b 800] ------- [43:255 -1:255 29 0] [0x2 2 1 [0 0] [1 4]] (REQUEST)
r 1.009150321 _1_ RTR  --- 0 AODV 48 [0 ffffffff 2b 800] ------- [43:255 -1:255 29 0] [0x2 2 1 [0 0] [1 4]] (REQUEST)
r 1.009150453 _39_ RTR  --- 0 AODV 48 [0 ffffffff 2b 800] ------- [43:255 -1:255 29 0] [0x2 2 1 [0 0] [1 4]] (REQUEST)
r 1.009150503 _51_ RTR  --- 0 AODV 48 [0 ffffffff 2b 800] ------- [43:255 -1:255 29 0] [0x2 2 1 [0 0] [1 4]] (REQUEST)
r 1.009150509 _15_ RTR  --- 0 AODV 48 [0 ffffffff 2b 800] ------- [43:255 -1:255 29 0] [0x2 2 1 [0 0] [1 4]] (REQUEST)
s 1.009400040 _39_ RTR  --- 0 AODV 48 [0 ffffffff 1 800] ------- [39:255 -1:255 29 0] [0x2 2 1 [0 0] [1 4]] (REQUEST)
s 1.009573301 _30_ RTR  --- 0 AODV 48 [0 ffffffff 1 800] ------- [30:255 -1:255 29 0] [0x2 2 1 [0 0] [1 4]] (REQUEST)
s 1.009771879 _55_ RTR  --- 0 AODV 48 [0 ffffffff 1 800] ------- [55:255 -1:255 29 0] [0x2 2 1 [0 0] [1 4]] (REQUEST)
s 1.010096809 _46_ RTR  --- 0 AODV 48 [0 ffffffff a 800] ------- [46:255 -1:255 28 0] [0x2 3 1 [0 0] [1 4]] (REQUEST)
s 1.010109716 _32_ RTR  --- 0 AODV 48 [0 ffffffff a 800] ------- [32:255 -1:255 28 0] [0x2 3 1 [0 0] [1 4]] (REQUEST)
r 1.010228346 _12_ RTR  --- 0 AODV 48 [0 ffffffff 30 800] ------- [48:255 -1:255 29 0] [0x2 2 1 [0 0] [1 4]] (REQUEST)
r 1.010228373 _6_ RTR  --- 0 AODV 48 [0 ffffffff 30 800] ------- [48:255 -1:255 29 0] [0x2 2 1 [0 0] [1 4]] (REQUEST)
r 1.010228538 _30_ RTR  --- 0 AODV 48 [0 ffffffff 30 800] ------- [48:255 -1:255 29 0] [0x2 2 1 [0 0] [1 4]] (REQUEST)
r 1.010228621 _43_ RTR  --- 0 AODV 48 [0 ffffffff 30 800] ------- [48:255 -1:255 29 0] [0x2 2 1 [0 0] [1 4]] (REQUEST)
r 1.010228687 _27_ RTR  --- 0 AODV 48 [0 ffffffff 30 800] ------- [48:255 -1:255 29 0] [0x2 2 1 [0 0] [1 4]] (REQUEST)
r 1.010228786 _39_ RTR  --- 0 AODV 48 [0 ffffffff 30 800] ------- [48:255 -1:255 29 0] [0x2 2 1 [0 0] [1 4]] (REQUEST)
r 1.010228922 _18_ RTR  --- 0 AODV 48 [0 ffffffff 30 800] ------- [48:255 -1:255 29 0] [0x2 2 1 [0 0] [1 4]] (REQUEST)
r 1.010228959 _51_ RTR  --- 0 AODV 48 [0 ffffffff 30 800] ------- [48:255 -1:255 29 0] [0x2 2 1 [0 0] [1 4]] (REQUEST)
r 1.010613378 _41_ RTR  --- 0 AODV 48 [0 ffffffff 2a 800] ------- [42:255 -1:255 28 0] [0x2 3 1 [0 0] [1 4]] (REQUEST)
r 1.010613400 _54_ RTR  --- 0 AODV 48 [0 ffffffff 2a 800] ------- [42:255 -1:255 28 0] [0x2 3 1 [0 0] [1 4]] (REQUEST)
r 1.010613498 _29_ RTR  --- 0 AODV 48 [0 ffffffff 2a 800] ------- [42:255 -1:255 28 0] [0x2 3 1 [0 0] [1 4]] (REQUEST)
r 1.010613550 _46_ RTR  --- 0 AODV 48 [0 ffffffff 2a 800] ------- [42:255 -1:255 28 0] [0x2 3 1 [0 0] [1 4]] (REQUEST)
r 1.010613619 _25_ RTR  --- 0 AODV 48 [0 ffffffff 2a 800] ------- [42:255 -1:255 28 0] [0x2 3 1 [0 0] [1 4]] (REQUEST)
r 1.010613781 _44_ RTR  --- 0 AODV 48 [0 ffffffff 2a 800] ------- [42:255 -1:255 28 0] [0x2 3 1 [0 0] [1 4]] (REQUEST)
r 1.011731629 _25_ RTR  --- 0 AODV 48 [0 ffffffff 2e 800] ------- [46:255 -1:255 28 0] [0x2 3 1 [0 0] [1 4]] (REQUEST)
r 1.011731809 _29_ RTR  --- 0 AODV 48 [0 ffffffff 2e 800] ------- [46:255 -1:255 28 0] [0x2 3 1 [0 0] [1 4]] (REQUEST)
r 1.011731823 _28_ RTR  --- 0 AODV 48 [0 ffffffff 2e 800] ------- [46:255 -1:255 28 0] [0x2 3 1 [0 0] [1 4]] (REQUEST)
r 1.011731860 _41_ RTR  --- 0 AODV 48 [0 ffffffff 2e 800] ------- [46:255 -1:255 28 0] [0x2 3 1 [0 0] [1 4]] (REQUEST)
r 1.011731936 _47_ RTR  --- 0 AODV 48 [0 ffffffff 2e 800] ------- [46:255 -1:255 28 0] [0x2 3 1 [0 0] [1 4]] (REQUEST)
r 1.011731970 _32_ RTR  --- 0 AODV 48 [0 ffffffff 2e 800] ------- [46:255 -1:255 28 0] [0x2 3 1 [0 0] [1 4]] (REQUEST)
r 1.011731992 _42_ RTR  --- 0 AODV 48 [0 ffffffff 2e 800] ------- [46:255 -1:255 28 0] [0x2 3 1 [0 0] [1 4]] (REQUEST)
r 1.011732163 _44_ RTR  --- 0 AODV 48 [0 ffffffff 2e 800] ------- [46:255 -1:255 28 0] [0x2 3 1 [0 0] [1 4]] (REQUEST)
r 1.011732185 _23_ RTR  --- 0 AODV 48 [0 ffffffff 2e 800] ------- [46:255 -1:255 28 0] [0x2 3 1 [0 0] [1 4]] (REQUEST)
r 1.011732203 _54_ RTR  --- 0 AODV 48 [0 ffffffff 2e 800] ------- [46:255 -1:255 28 0] [0x2 3 1 [0 0] [1 4]] (REQUEST)
r 1.011732231 _10_ RTR  --- 0 AODV 48 [0 ffffffff 2e 800] ------- [46:255 -1:255 28 0] [0x2 3 1 [0 0] [1 4]] (REQUEST)
r 1.011732279 _53_ RTR  --- 0 AODV 48 [0 ffffffff 2e 800] ------- [46:255 -1:255 28 0] [0x2 3 1 [0 0] [1 4]] (REQUEST)
r 1.011732372 _38_ RTR  --- 0 AODV 48 [0 ffffffff 2e 800] ------- [46:255 -1:255 28 0] [0x2 3 1 [0 0] [1 4]] (REQUEST)
r 1.011977054 _48_ RTR  --- 0 AODV 48 [0 ffffffff 6 800] ------- [6:255 -1:255 29 0] [0x2 2 1 [0 0] [1 4]] (REQUEST)
r 1.012689707 _46_ RTR  --- 0 AODV 48 [0 ffffffff 19 800] ------- [25:255 -1:255 28 0] [0x2 3 1 [0 0] [1 4]] (REQUEST)
r 1.012689950 _28_ RTR  --- 0 AODV 48 [0 ffffffff 19 800] ------- [25:255 -1:255 28 0] [0x2 3 1 [0 0] [1 4]] (REQUEST)
r 1.012689958 _29_ RTR  --- 0 AODV 48 [0 ffffffff 19 800] ------- [25:255 -1:255 28 0] [0x2 3 1 [0 0] [1 4]] (REQUEST)
r 1.012689982 _47_ RTR  --- 0 AODV 48 [0 ffffffff 19 800] ------- [25:255 -1:255 28 0] [0x2 3 1 [0 0] [1 4]] (REQUEST)
r 1.012690014 _32_ RTR  --- 0 AODV 48 [0 ffffffff 19 800] ------- [25:255 -1:255 28 0] [0x2 3 1 [0 0] [1 4]] (REQUEST)
r 1.012690016 _41_ RTR  --- 0 AODV 48 [0 ffffffff 19 800] ------- [25:255 -1:255 28 0] [0x2 3 1 [0 0] [1 4]] (REQUEST)
r 1.012690139 _42_ RTR  --- 0 AODV 48 [0 ffffffff 19 800] ------- [25:255 -1:255 28 0] [0x2 3 1 [0 0] [1 4]] (REQUEST)
r 1.012690251 _23_ RTR  --- 0 AODV 48 [0 ffffffff 19 800] ------- [25:255 -1:255 28 0] [0x2 3 1 [0 0] [1 4]] (REQUEST)
r 1.012690298 _44_ RTR  --- 0 AODV 48 [0 ffffffff 19 800] ------- [25:255 -1:255 28 0] [0x2 3 1 [0 0] [1 4]] (REQUEST)
r 1.012690330 _10_ RTR  --- 0 AODV 48 [0 ffffffff 19 800] ------- [25:255 -1:255 28 0] [0x2 3 1 [0 0] [1 4]] (REQUEST)
r 1.012690346 _53_ RTR  --- 0 AODV 48 [0 ffffffff 19 800] ------- [25:255 -1:255 28 0] [0x2 3 1 [0 0] [1 4]] (REQUEST)
r 1.012690359 _54_ RTR  --- 0 AODV 48 [0 ffffffff 19 800] ------- [25:255 -1:255 28 0] [0x2 3 1 [0 0] [1 4]] (REQUEST)
r 1.013340420 _50_ RTR  --- 0 AODV 48 [0 ffffffff 31 800] ------- [49:255 -1:255 28 0] [0x2 3 1 [0 0] [1 4]] (REQUEST)
r 1.013340525 _18_ RTR  --- 0 AODV 48 [0 ffffffff 31 800] ------- [49:255 -1:255 28 0] [0x2 3 1 [0 0] [1 4]] (REQUEST)
r 1.013340530 _20_ RTR  --- 0 AODV 48 [0 ffffffff 31 800] ------- [49:255 -1:255 28 0] [0x2 3 1 [0 0] [1 4]] (REQUEST)
r 1.013340637 _51_ RTR  --- 0 AODV 48 [0 ffffffff 31 800] ------- [49:255 -1:255 28 0] [0x2 3 1 [0 0] [1 4]] (REQUEST)
r 1.013340649 _39_ RTR  --- 0 AODV 48 [0 ffffffff 31 800] ------- [49:255 -1:255 28 0] [0x2 3 1 [0 0] [1 4]] (REQUEST)
r 1.013340706 _7_ RTR  --- 0 AODV 48 [0 ffffffff 31 800] ------- [49:255 -1:255 28 0] [0x2 3 1 [0 0] [1 4]] (REQUEST)
s 1.013676807 _28_ RTR  --- 0 AODV 48 [0 ffffffff a 800] ------- [28:255 -1:255 28 0] [0x2 3 1 [0 0] [1 4]] (REQUEST)
s 1.013799619 _53_ RTR  --- 0 AODV 48 [0 ffffffff 2e 800] ------- [53:255 -1:255 27 0] [0x2 4 1 [0 0] [1 4]] (REQUEST)
s 1.013841864 _20_ RTR  --- 0 AODV 48 [0 ffffffff 31 800] ------- [20:255 -1:255 27 0] [0x2 4 1 [0 0] [1 4]] (REQUEST)
r 1.014458786 _18_ RTR  --- 0 AODV 48 [0 ffffffff 27 800] ------- [39:255 -1:255 29 0] [0x2 2 1 [0 0] [1 4]] (REQUEST)
r 1.014458882 _51_ RTR  --- 0 AODV 48 [0 ffffffff 27 800] ------- [39:255 -1:255 29 0] [0x2 2 1 [0 0] [1 4]] (REQUEST)
r 1.014459066 _6_ RTR  --- 0 AODV 48 [0 ffffffff 27 800] ------- [39:255 -1:255 29 0] [0x2 2 1 [0 0] [1 4]] (REQUEST)
r 1.014459108 _12_ RTR  --- 0 AODV 48 [0 ffffffff 27 800] ------- [39:255 -1:255 29 0] [0x2 2 1 [0 0] [1 4]] (REQUEST)
r 1.014459135 _1_ RTR  --- 0 AODV 48 [0 ffffffff 27 800] ------- [39:255 -1:255 29 0] [0x2 2 1 [0 0] [1 4]] (REQUEST)
r 1.014459246 _27_ RTR  --- 0 AODV 48 [0 ffffffff 27 800] ------- [39:255 -1:255 29 0] [0x2 2 1 [0 0] [1 4]] (REQUEST)
r 1.014459264 _30_ RTR  --- 0 AODV 48 [0 ffffffff 27 800] ------- [39:255 -1:255 29 0] [0x2 2 1 [0 0] [1 4]] (REQUEST)
r 1.014459276 _48_ RTR  --- 0 AODV 48 [0 ffffffff 27 800] ------- [39:255 -1:255 29 0] [0x2 2 1 [0 0] [1 4]] (REQUEST)
r 1.014459357 _49_ RTR  --- 0 AODV 48 [0 ffffffff 27 800] ------- [39:255 -1:255 29 0] [0x2 2 1 [0 0] [1 4]] (REQUEST)
r 1.014459405 _43_ RTR  --- 0 AODV 48 [0 ffffffff 27 800] ------- [39:255 -1:255 29 0] [0x2 2 1 [0 0] [1 4]] (REQUEST)
r 1.014847715 _23_ RTR  --- 0 AODV 48 [0 ffffffff 35 800] ------- [53:255 -1:255 27 0] [0x2 4 1 [0 0] [1 4]] (REQUEST)
r 1.014847993 _38_ RTR  --- 0 AODV 48 [0 ffffffff 35 800] ------- [53:255 -1:255 27 0] [0x2 4 1 [0 0] [1 4]] (REQUEST)
r 1.014848098 _57_ RTR  --- 0 AODV 48 [0 ffffffff 35 800] ------- [53:255 -1:255 27 0] [0x2 4 1 [0 0] [1 4]] (REQUEST)
r 1.014848243 _44_ RTR  --- 0 AODV 48 [0 ffffffff 35 800] ------- [53:255 -1:255 27 0] [0x2 4 1 [0 0] [1 4]] (REQUEST)
r 1.014848307 _29_ RTR  --- 0 AODV 48 [0 ffffffff 35 800] ------- [53:255 -1:255 27 0] [0x2 4 1 [0 0] [1 4]] (REQUEST)
r 1.014848434 _41_ RTR  --- 0 AODV 48 [0 ffffffff 35 800] ------- [53:255 -1:255 27 0] [0x2 4 1 [0 0] [1 4]] (REQUEST)
s 1.014929208 _41_ RTR  --- 0 AODV 48 [0 ffffffff a 800] ------- [41:255 -1:255 28 0] [0x2 3 1 [0 0] [1 4]] (REQUEST)
s 1.014968332 _29_ RTR  --- 0 AODV 48 [0 ffffffff a 800] ------- [29:255 -1:255 28 0] [0x2 3 1 [0 0] [1 4]] (REQUEST)
s 1.015103979 _47_ RTR  --- 0 AODV 48 [0 ffffffff a 800] ------- [47:255 -1:255 28 0] [0x2 3 1 [0 0] [1 4]] (REQUEST)
s 1.015517455 _54_ RTR  --- 0 AODV 48 [0 ffffffff a 800] ------- [54:255 -1:255 28 0] [0x2 3 1 [0 0] [1 4]] (REQUEST)
r 1.015536923 _39_ RTR  --- 0 AODV 48 [0 ffffffff 12 800] ------- [18:255 -1:255 29 0] [0x2 2 1 [0 0] [1 4]] (REQUEST)
r 1.015536978 _51_ RTR  --- 0 AODV 48 [0 ffffffff 12 800] ------- [18:255 -1:255 29 0] [0x2 2 1 [0 0] [1 4]] (REQUEST)
r 1.015537299 _1_ RTR  --- 0 AODV 48 [0 ffffffff 12 800] ------- [18:255 -1:255 29 0] [0x2 2 1 [0 0] [1 4]] (REQUEST)
r 1.015537339 _6_ RTR  --- 0 AODV 48 [0 ffffffff 12 800] ------- [18:255 -1:255 29 0] [0x2 2 1 [0 0] [1 4]] (REQUEST)
r 1.015537369 _49_ RTR  --- 0 AODV 48 [0 ffffffff 12 800] ------- [18:255 -1:255 29 0] [0x2 2 1 [0 0] [1 4]] (REQUEST)
r 1.015537381 _12_ RTR  --- 0 AODV 48 [0 ffffffff 12 800] ------- [18:255 -1:255 29 0] [0x2 2 1 [0 0] [1 4]] (REQUEST)
r 1.015537487 _27_ RTR  --- 0 AODV 48 [0 ffffffff 12 800] ------- [18:255 -1:255 29 0] [0x2 2 1 [0 0] [1 4]] (REQUEST)
r 1.015537524 _30_ RTR  --- 0 AODV 48 [0 ffffffff 12 800] ------- [18:255 -1:255 29 0] [0x2 2 1 [0 0] [1 4]] (REQUEST)
r 1.015537548 _48_ RTR  --- 0 AODV 48 [0 ffffffff 12 800] ------- [18:255 -1:255 29 0] [0x2 2 1 [0 0] [1 4]] (REQUEST)
r 1.015537574 _3_ RTR  --- 0 AODV 48 [0 ffffffff 12 800] ------- [18:255 -1:255 29 0] [0x2 2 1 [0 0] [1 4]] (REQUEST)
r 1.016217336 _29_ RTR  --- 0 AODV 48 [0 ffffffff 29 800] ------- [41:255 -1:255 28 0] [0x2 3 1 [0 0] [1 4]] (REQUEST)
r 1.016217517 _46_ RTR  --- 0 AODV 48 [0 ffffffff 29 800] ------- [41:255 -1:255 28 0] [0x2 3 1 [0 0] [1 4]] (REQUEST)
r 1.016217572 _54_ RTR  --- 0 AODV 48 [0 ffffffff 29 800] ------- [41:255 -1:255 28 0] [0x2 3 1 [0 0] [1 4]] (REQUEST)
r 1.016217595 _25_ RTR  --- 0 AODV 48 [0 ffffffff 29 800] ------- [41:255 -1:255 28 0] [0x2 3 1 [0 0] [1 4]] (REQUEST)
r 1.016217634 _44_ RTR  --- 0 AODV 48 [0 ffffffff 29 800] ------- [41:255 -1:255 28 0] [0x2 3 1 [0 0] [1 4]] (REQUEST)
r 1.016217943 _23_ RTR  --- 0 AODV 48 [0 ffffffff 29 800] ------- [41:255 -1:255 28 0] [0x2 3 1 [0 0] [1 4]] (REQUEST)
r 1.016217968 _38_ RTR  --- 0 AODV 48 [0 ffffffff 29 800] ------- [41:255 -1:255 28 0] [0x2 3 1 [0 0] [1 4]] (REQUEST)
r 1.016218023 _53_ RTR  --- 0 AODV 48 [0 ffffffff 29 800] ------- [41:255 -1:255 28 0] [0x2 3 1 [0 0] [1 4]] (REQUEST)
r 1.016655435 _6_ RTR  --- 0 AODV 48 [0 ffffffff c 800] ------- [12:255 -1:255 29 0] [0x2 2 1 [0 0] [1 4]] (REQUEST)
r 1.016655568 _48_ RTR  --- 0 AODV 48 [0 ffffffff c 800] ------- [12:255 -1:255 29 0] [0x2 2 1 [0 0] [1 4]] (REQUEST)
r 1.016655673 _30_ RTR  --- 0 AODV 48 [0 ffffffff c 800] ------- [12:255 -1:255 29 0] [0x2 2 1 [0 0] [1 4]] (REQUEST)
r 1.016655784 _27_ RTR  --- 0 AODV 48 [0 ffffffff c 800] ------- [12:255 -1:255 29 0] [0x2 2 1 [0 0] [1 4]] (REQUEST)
r 1.016655799 _43_ RTR  --- 0 AODV 48 [0 ffffffff c 800] ------- [12:255 -1:255 29 0] [0x2 2 1 [0 0] [1 4]] (REQUEST)
r 1.016655840 _39_ RTR  --- 0 AODV 48 [0 ffffffff c 800] ------- [12:255 -1:255 29 0] [0x2 2 1 [0 0] [1 4]] (REQUEST)
r 1.016655976 _18_ RTR  --- 0 AODV 48 [0 ffffffff c 800] ------- [12:255 -1:255 29 0] [0x2 2 1 [0 0] [1 4]] (REQUEST)
r 1.016655997 _51_ RTR  --- 0 AODV 48 [0 ffffffff c 800] ------- [12:255 -1:255 29 0] [0x2 2 1 [0 0] [1 4]] (REQUEST)
r 1.016656014 _1_ RTR  --- 0 AODV 48 [0 ffffffff c 800] ------- [12:255 -1:255 29 0] [0x2 2 1 [0 0] [1 4]] (REQUEST)
r 1.017415465 _41_ RTR  --- 0 AODV 48 [0 ffffffff 1d 800] ------- [29:255 -1:255 28 0] [0x2 3 1 [0 0] [1 4]] (REQUEST)
r 1.017415595 _46_ RTR  --- 0 AODV 48 [0 ffffffff 1d 800] ------- [29:255 -1:255 28 0] [0x2 3 1 [0 0] [1 4]] (REQUEST)
r 1.017415665 _25_ RTR  --- 0 AODV 48 [0 ffffffff 1d 800] ------- [29:255 -1:255 28 0] [0x2 3 1 [0 0] [1 4]] (REQUEST)
r 1.017415706 _28_ RTR  --- 0 AODV 48 [0 ffffffff 1d 800] ------- [29:255 -1:255 28 0] [0x2 3 1 [0 0] [1 4]] (REQUEST)
r 1.017415707 _44_ RTR  --- 0 AODV 48 [0 ffffffff 1d 800] ------- [29:255 -1:255 28 0] [0x2 3 1 [0 0] [1 4]] (REQUEST)
r 1.017415726 _42_ RTR  --- 0 AODV 48 [0 ffffffff 1d 800] ------- [29:255 -1:255 28 0] [0x2 3 1 [0 0] [1 4]] (REQUEST)
r 1.017415819 _54_ RTR  --- 0 AODV 48 [0 ffffffff 1d 800] ------- [29:255 -1:255 28 0] [0x2 3 1 [0 0] [1 4]] (REQUEST)
r 1.017415944 _23_ RTR  --- 0 AODV 48 [0 ffffffff 1d 800] ------- [29:255 -1:255 28 0] [0x2 3 1 [0 0] [1 4]] (REQUEST)
r 1.017415960 _47_ RTR  --- 0 AODV 48 [0 ffffffff 1d 800] ------- [29:255 -1:255 28 0] [0x2 3 1 [0 0] [1 4]] (REQUEST)
r 1.017415995 _38_ RTR  --- 0 AODV 48 [0 ffffffff 1d 800] ------- [29:255 -1:255 28 0] [0x2 3 1 [0 0] [1 4]] (REQUEST)
r 1.017415995 _32_ RTR  --- 0 AODV 48 [0 ffffffff 1d 800] ------- [29:255 -1:255 28 0] [0x2 3 1 [0 0] [1 4]] (REQUEST)
r 1.017416024 _53_ RTR  --- 0 AODV 48 [0 ffffffff 1d 800] ------- [29:255 -1:255 28 0] [0x2 3 1 [0 0] [1 4]] (REQUEST)
r 1.017416101 _57_ RTR  --- 0 AODV 48 [0 ffffffff 1d 800] ------- [29:255 -1:255 28 0] [0x2 3 1 [0 0] [1 4]] (REQUEST)
r 1.017999268 _50_ RTR  --- 0 AODV 48 [0 ffffffff 14 800] ------- [20:255 -1:255 27 0] [0x2 4 1 [0 0] [1 4]] (REQUEST)
r 1.017999570 _7_ RTR  --- 0 AODV 48 [0 ffffffff 14 800] ------- [20:255 -1:255 27 0] [0x2 4 1 [0 0] [1 4]] (REQUEST)
r 1.017999597 _31_ RTR  --- 0 AODV 48 [0 ffffffff 14 800] ------- [20:255 -1:255 27 0] [0x2 4 1 [0 0] [1 4]] (REQUEST)
r 1.017999663 _49_ RTR  --- 0 AODV 48 [0 ffffffff 14 800] ------- [20:255 -1:255 27 0] [0x2 4 1 [0 0] [1 4]] (REQUEST)
r 1.017999707 _5_ RTR  --- 0 AODV 48 [0 ffffffff 14 800] ------- [20:255 -1:255 27 0] [0x2 4 1 [0 0] [1 4]] (REQUEST)
r 1.017999762 _33_ RTR  --- 0 AODV 48 [0 ffffffff 14 800] ------- [20:255 -1:255 27 0] [0x2 4 1 [0 0] [1 4]] (REQUEST)
r 1.017999827 _11_ RTR  --- 0 AODV 48 [0 ffffffff 14 800] ------- [20:255 -1:255 27 0] [0x2 4 1 [0 0] [1 4]] (REQUEST)
s 1.018257637 _50_ RTR  --- 0 AODV 48 [0 ffffffff 31 800] ------- [50:255 -1:255 27 0] [0x2 4 1 [0 0] [1 4]] (REQUEST)
r 1.018394030 _47_ RTR  --- 0 AODV 48 [0 ffffffff 20 800] ------- [32:255 -1:255 28 0] [0x2 3 1 [0 0] [1 4]] (REQUEST)
r 1.018394379 _28_ RTR  --- 0 AODV 48 [0 ffffffff 20 800] ------- [32:255 -1:255 28 0] [0x2 3 1 [0 0] [1 4]] (REQUEST)
r 1.018394380 _25_ RTR  --- 0 AODV 48 [0 ffffffff 20 800] ------- [32:255 -1:255 28 0] [0x2 3 1 [0 0] [1 4]] (REQUEST)
r 1.018394401 _58_ RTR  --- 0 AODV 48 [0 ffffffff 20 800] ------- [32:255 -1:255 28 0] [0x2 3 1 [0 0] [1 4]] (REQUEST)
r 1.018394414 _46_ RTR  --- 0 AODV 48 [0 ffffffff 20 800] ------- [32:255 -1:255 28 0] [0x2 3 1 [0 0] [1 4]] (REQUEST)
r 1.018394467 _10_ RTR  --- 0 AODV 48 [0 ffffffff 20 800] ------- [32:255 -1:255 28 0] [0x2 3 1 [0 0] [1 4]] (REQUEST)
r 1.018394607 _42_ RTR  --- 0 AODV 48 [0 ffffffff 20 800] ------- [32:255 -1:255 28 0] [0x2 3 1 [0 0] [1 4]] (REQUEST)
r 1.018394651 _41_ RTR  --- 0 AODV 48 [0 ffffffff 20 800] ------- [32:255 -1:255 28 0] [0x2 3 1 [0 0] [1 4]] (REQUEST)
r 1.018394654 _29_ RTR  --- 0 AODV 48 [0 ffffffff 20 800] ------- [32:255 -1:255 28 0] [0x2 3 1 [0 0] [1 4]] (REQUEST)
r 1.018394796 _15_ RTR  --- 0 AODV 48 [0 ffffffff 20 800] ------- [32:255 -1:255 28 0] [0x2 3 1 [0 0] [1 4]] (REQUEST)
s 1.018463652 _44_ RTR  --- 0 AODV 48 [0 ffffffff 2a 800] ------- [44:255 -1:255 27 0] [0x2 4 1 [0 0] [1 4]] (REQUEST)
s 1.018681745 _38_ RTR  --- 0 AODV 48 [0 ffffffff 2e 800] ------- [38:255 -1:255 27 0] [0x2 4 1 [0 0] [1 4]] (REQUEST)