s 1.000000000 _1_ AGT  --- 0 cbr 1000 [0 0 0 0] ------- [1:0 0:0 32 0] [0] 0 0
r 1.000000000 _1_ RTR  --- 0 cbr 1000 [0 0 0 0] ------- [1:0 0:0 32 0] [0] 0 0
s 1.000000000 _1_ AGT  --- 1 cbr 24 [0 0 0 0] ------- [1:0 0:0 32 0] [1] 0 0
r 1.000000000 _1_ RTR  --- 1 cbr 24 [0 0 0 0] ------- [1:0 0:0 32 0] [1] 0 0
s 1.000000000 _1_ RTR  --- 0 AODV 48 [0 0 0 0] ------- [1:255 -1:255 30 0] [0x2 1 1 [0 0] [1 4]] (REQUEST)
r 1.001408117 _14_ RTR  --- 0 AODV 48 [0 ffffffff 1 800] ------- [1:255 -1:255 30 0] [0x2 1 1 [0 0] [1 4]] (REQUEST)
r 1.001408208 _38_ RTR  --- 0 AODV 48 [0 ffffffff 1 800] ------- [1:255 -1:255 30 0] [0x2 1 1 [0 0] [1 4]] (REQUEST)
r 1.001408406 _8_ RTR  --- 0 AODV 48 [0 ffffffff 1 800] ------- [1:255 -1:255 30 0] [0x2 1 1 [0 0] [1 4]] (REQUEST)
r 1.001408519 _2_ RTR  --- 0 AODV 48 [0 ffffffff 1 800] ------- [1:255 -1:255 30 0] [0x2 1 1 [0 0] [1 4]] (REQUEST)
r 1.001408632 _34_ RTR  --- 0 AODV 48 [0 ffffffff 1 800] ------- [1:255 -1:255 30 0] [0x2 1 1 [0 0] [1 4]] (REQUEST)
r 1.001408744 _29_ RTR  --- 0 AODV 48 [0 ffffffff 1 800] ------- [1:255 -1:255 30 0] [0x2 1 1 [0 0] [1 4]] (REQUEST)
r 1.001408787 _31_ RTR  --- 0 AODV 48 [0 ffffffff 1 800] ------- [1:255 -1:255 30 0] [0x2 1 1 [0 0] [1 4]] (REQUEST)
r 1.001408791 _68_ RTR  --- 0 AODV 48 [0 ffffffff 1 800] ------- [1:255 -1:255 30 0] [0x2 1 1 [0 0] [1 4]] (REQUEST)
r 1.001408810 _48_ RTR  --- 0 AODV 48 [0 ffffffff 1 800] ------- [1:255 -1:255 30 0] [0x2 1 1 [0 0] [1 4]] (REQUEST)
s 1.001550164 _14_ RTR  --- 0 AODV 48 [0 ffffffff 1 800] ------- [14:255 -1:255 29 0] [0x2 2 1 [0 0] [1 4]] (REQUEST)
s 1.002289434 _38_ RTR  --- 0 AODV 48 [0 ffffffff 1 800] ------- [38:255 -1:255 29 0] [0x2 2 1 [0 0] [1 4]] (REQUEST)
r 1.002738281 _1_ RTR  --- 0 AODV 48 [0 ffffffff e 800] ------- [14:255 -1:255 29 0] [0x2 2 1 [0 0] [1 4]] (REQUEST)
r 1.002738476 _38_ RTR  --- 0 AODV 48 [0 ffffffff e 800] ------- [14:255 -1:255 29 0] [0x2 2 1 [0 0] [1 4]] (REQUEST)
r 1.002738568 _2_ RTR  --- 0 AODV 48 [0 ffffffff e 800] ------- [14:255 -1:255 29 0] [0x2 2 1 [0 0] [1 4]] (REQUEST)
r 1.002738633 _8_ RTR  --- 0 AODV 48 [0 ffffffff e 800] ------- [14:255 -1:255 29 0] [0x2 2 1 [0 0] [1 4]] (REQUEST)
r 1.002738834 _31_ RTR  --- 0 AODV 48 [0 ffffffff e 800] ------- [14:255 -1:255 29 0] [0x2 2 1 [0 0] [1 4]] (REQUEST)
r 1.002738837 _68_ RTR  --- 0 AODV 48 [0 ffffffff e 800] ------- [14:255 -1:255 29 0] [0x2 2 1 [0 0] [1 4]] (REQUEST)
r 1.002738838 _34_ RTR  --- 0 AODV 48 [0 ffffffff e 800] ------- [14:255 -1:255 29 0] [0x2 2 1 [0 0] [1 4]] (REQUEST)
r 1.002738949 _48_ RTR  --- 0 AODV 48 [0 ffffffff e 800] ------- [14:255 -1:255 29 0] [0x2 2 1 [0 0] [1 4]] (REQUEST)
r 1.002738962 _29_ RTR  --- 0 AODV 48 [0 ffffffff e 800] ------- [14:255 -1:255 29 0] [0x2 2 1 [0 0] [1 4]] (REQUEST)
r 1.002738962 _39_ RTR  --- 0 AODV 48 [0 ffffffff e 800] ------- [14:255 -1:255 29 0] [0x2 2 1 [0 0] [1 4]] (REQUEST)
r 1.003676684 _1_ RTR  --- 0 AODV 48 [0 ffffffff 26 800] ------- [38:255 -1:255 29 0] [0x2 2 1 [0 0] [1 4]] (REQUEST)
r 1.003676789 _14_ RTR  --- 0 AODV 48 [0 ffffffff 26 800] ------- [38:255 -1:255 29 0] [0x2 2 1 [0 0] [1 4]] (REQUEST)
r 1.003676955 _8_ RTR  --- 0 AODV 48 [0 ffffffff 26 800] ------- [38:255 -1:255 29 0] [0x2 2 1 [0 0] [1 4]] (REQUEST)
r 1.003677190 _2_ RTR  --- 0 AODV 48 [0 ffffffff 26 800] ------- [38:255 -1:255 29 0] [0x2 2 1 [0 0] [1 4]] (REQUEST)
r 1.003677197 _34_ RTR  --- 0 AODV 48 [0 ffffffff 26 800] ------- [38:255 -1:255 29 0] [0x2 2 1 [0 0] [1 4]] (REQUEST)
r 1.003677281 _29_ RTR  --- 0 AODV 48 [0 ffffffff 26 800] ------- [38:255 -1:255 29 0] [0x2 2 1 [0 0] [1 4]] (REQUEST)
s 1.003754804 _31_ RTR  --- 0 AODV 48 [0 ffffffff 1 800] ------- [31:255 -1:255 29 0] [0x2 2 1 [0 0] [1 4]] (REQUEST)
s 1.004499600 _48_ RTR  --- 0 AODV 48 [0 ffffffff 1 800] ------- [48:255 -1:255 29 0] [0x2 2 1 [0 0] [1 4]] (REQUEST)
s 1.004538250 _34_ RTR  --- 0 AODV 48 [0 ffffffff 1 800] ------- [34:255 -1:255 29 0] [0x2 2 1 [0 0] [1 4]] (REQUEST)
r 1.005179534 _68_ RTR  --- 0 AODV 48 [0 ffffffff 1f 800] ------- [31:255 -1:255 29 0] [0x2 2 1 [0 0] [1 4]] (REQUEST)
r 1.005179722 _2_ RTR  --- 0 AODV 48 [0 ffffffff 1f 800] ------- [31:255 -1:255 29 0] [0x2 2 1 [0 0] [1 4]] (REQUEST)
r 1.005180098 _39_ RTR  --- 0 AODV 48 [0 ffffffff 1f 800] ------- [31:255 -1:255 29 0] [0x2 2 1 [0 0] [1 4]] (REQUEST)
r 1.005180122 _14_ RTR  --- 0 AODV 48 [0 ffffffff 1f 800] ------- [31:255 -1:255 29 0] [0x2 2 1 [0 0] [1 4]] (REQUEST)
r 1.005180203 _58_ RTR  --- 0 AODV 48 [0 ffffffff 1f 800] ------- [31:255 -1:255 29 0] [0x2 2 1 [0 0] [1 4]] (REQUEST)
r 1.005180239 _1_ RTR  --- 0 AODV 48 [0 ffffffff 1f 800] ------- [31:255 -1:255 29 0] [0x2 2 1 [0 0] [1 4]] (REQUEST)
r 1.005180280 _19_ RTR  --- 0 AODV 48 [0 ffffffff 1f 800] ------- [31:255 -1:255 29 0] [0x2 2 1 [0 0] [1 4]] (REQUEST)
s 1.005820140 _8_ RTR  --- 0 AODV 48 [0 ffffffff 1 800] ------- [8:255 -1:255 29 0] [0x2 2 1 [0 0] [1 4]] (REQUEST)
r 1.006602540 _40_ RTR  --- 0 AODV 48 [0 ffffffff 30 800] ------- [48:255 -1:255 29 0] [0x2 2 1 [0 0] [1 4]] (REQUEST)
r 1.006602678 _39_ RTR  --- 0 AODV 48 [0 ffffffff 30 800] ------- [48:255 -1:255 29 0] [0x2 2 1 [0 0] [1 4]] (REQUEST)
r 1.006602783 _34_ RTR  --- 0 AODV 48 [0 ffffffff 30 800] ------- [48:255 -1:255 29 0] [0x2 2 1 [0 0] [1 4]] (REQUEST)
r 1.006602803 _33_ RTR  --- 0 AODV 48 [0 ffffffff 30 800] ------- [48:255 -1:255 29 0] [0x2 2 1 [0 0] [1 4]] (REQUEST)
r 1.006602841 _21_ RTR  --- 0 AODV 48 [0 ffffffff 30 800] ------- [48:255 -1:255 29 0] [0x2 2 1 [0 0] [1 4]] (REQUEST)
r 1.006602878 _29_ RTR  --- 0 AODV 48 [0 ffffffff 30 800] ------- [48:255 -1:255 29 0] [0x2 2 1 [0 0] [1 4]] (REQUEST)
r 1.006602922 _8_ RTR  --- 0 AODV 48 [0 ffffffff 30 800] ------- [48:255 -1:255 29 0] [0x2 2 1 [0 0] [1 4]] (REQUEST)
r 1.006602944 _19_ RTR  --- 0 AODV 48 [0 ffffffff 30 800] ------- [48:255 -1:255 29 0] [0x2 2 1 [0 0] [1 4]] (REQUEST)
r 1.006602945 _23_ RTR  --- 0 AODV 48 [0 ffffffff 30 800] ------- [48:255 -1:255 29 0] [0x2 2 1 [0 0] [1 4]] (REQUEST)
r 1.006602964 _7_ RTR  --- 0 AODV 48 [0 ffffffff 30 800] ------- [48:255 -1:255 29 0] [0x2 2 1 [0 0] [1 4]] (REQUEST)
r 1.006602967 _44_ RTR  --- 0 AODV 48 [0 ffffffff 30 800] ------- [48:255 -1:255 29 0] [0x2 2 1 [0 0] [1 4]] (REQUEST)
r 1.006602975 _28_ RTR  --- 0 AODV 48 [0 ffffffff 30 800] ------- [48:255 -1:255 29 0] [0x2 2 1 [0 0] [1 4]] (REQUEST)
r 1.006603099 _2_ RTR  --- 0 AODV 48 [0 ffffffff 30 800] ------- [48:255 -1:255 29 0] [0x2 2 1 [0 0] [1 4]] (REQUEST)
r 1.006603131 _14_ RTR  --- 0 AODV 48 [0 ffffffff 30 800] ------- [48:255 -1:255 29 0] [0x2 2 1 [0 0] [1 4]] (REQUEST)
r 1.006603135 _69_ RTR  --- 0 AODV 48 [0 ffffffff 30 800] ------- [48:255 -1:255 29 0] [0x2 2 1 [0 0] [1 4]] (REQUEST)
r 1.006603147 _9_ RTR  --- 0 AODV 48 [0 ffffffff 30 800] ------- [48:255 -1:255 29 0] [0x2 2 1 [0 0] [1 4]] (REQUEST)
r 1.006603156 _1_ RTR  --- 0 AODV 48 [0 ffffffff 30 800] ------- [48:255 -1:255 29 0] [0x2 2 1 [0 0] [1 4]] (REQUEST)
r 1.007721164 _34_ RTR  --- 0 AODV 48 [0 ffffffff 8 800] ------- [8:255 -1:255 29 0] [0x2 2 1 [0 0] [1 4]] (REQUEST)
r 1.007721260 _29_ RTR  --- 0 AODV 48 [0 ffffffff 8 800] ------- [8:255 -1:255 29 0] [0x2 2 1 [0 0] [1 4]] (REQUEST)
r 1.007721329 _1_ RTR  --- 0 AODV 48 [0 ffffffff 8 800] ------- [8:255 -1:255 29 0] [0x2 2 1 [0 0] [1 4]] (REQUEST)
r 1.007721369 _44_ RTR  --- 0 AODV 48 [0 ffffffff 8 800] ------- [8:255 -1:255 29 0] [0x2 2 1 [0 0] [1 4]] (REQUEST)
r 1.007721391 _14_ RTR  --- 0 AODV 48 [0 ffffffff 8 800] ------- [8:255 -1:255 29 0] [0x2 2 1 [0 0] [1 4]] (REQUEST)
r 1.007721401 _38_ RTR  --- 0 AODV 48 [0 ffffffff 8 800] ------- [8:255 -1:255 29 0] [0x2 2 1 [0 0] [1 4]] (REQUEST)
r 1.007721498 _48_ RTR  --- 0 AODV 48 [0 ffffffff 8 800] ------- [8:255 -1:255 29 0] [0x2 2 1 [0 0] [1 4]] (REQUEST)
r 1.007721563 _40_ RTR  --- 0 AODV 48 [0 ffffffff 8 800] ------- [8:255 -1:255 29 0] [0x2 2 1 [0 0] [1 4]] (REQUEST)
r 1.007721615 _23_ RTR  --- 0 AODV 48 [0 ffffffff 8 800] ------- [8:255 -1:255 29 0] [0x2 2 1 [0 0] [1 4]] (REQUEST)
r 1.007721668 _2_ RTR  --- 0 AODV 48 [0 ffffffff 8 800] ------- [8:255 -1:255 29 0] [0x2 2 1 [0 0] [1 4]] (REQUEST)
r 1.007721705 _39_ RTR  --- 0 AODV 48 [0 ffffffff 8 800] ------- [8:255 -1:255 29 0] [0x2 2 1 [0 0] [1 4]] (REQUEST)
s 1.007797442 _68_ RTR  --- 0 AODV 48 [0 ffffffff 1 800] ------- [68:255 -1:255 29 0] [0x2 2 1 [0 0] [1 4]] (REQUEST)
s 1.008667690 _19_ RTR  --- 0 AODV 48 [0 ffffffff 1f 800] ------- [19:255 -1:255 28 0] [0x2 3 1 [0 0] [1 4]] (REQUEST)
r 1.008719306 _29_ RTR  --- 0 AODV 48 [0 ffffffff 22 800] ------- [34:255 -1:255 29 0] [0x2 2 1 [0 0] [1 4]] (REQUEST)
r 1.008719405 _8_ RTR  --- 0 AODV 48 [0 ffffffff 22 800] ------- [34:255 -1:255 29 0] [0x2 2 1 [0 0] [1 4]] (REQUEST)
r 1.008719428 _44_ RTR  --- 0 AODV 48 [0 ffffffff 22 800] ------- [34:255 -1:255 29 0] [0x2 2 1 [0 0] [1 4]] (REQUEST)
r 1.008719599 _48_ RTR  --- 0 AODV 48 [0 ffffffff 22 800] ------- [34:255 -1:255 29 0] [0x2 2 1 [0 0] [1 4]] (REQUEST)
r 1.008719603 _40_ RTR  --- 0 AODV 48 [0 ffffffff 22 800] ------- [34:255 -1:255 29 0] [0x2 2 1 [0 0] [1 4]] (REQUEST)
r 1.008719622 _23_ RTR  --- 0 AODV 48 [0 ffffffff 22 800] ------- [34:255 -1:255 29 0] [0x2 2 1 [0 0] [1 4]] (REQUEST)
r 1.008719796 _1_ RTR  --- 0 AODV 48 [0 ffffffff 22 800] ------- [34:255 -1:255 29 0] [0x2 2 1 [0 0] [1 4]] (REQUEST)
r 1.008719838 _14_ RTR  --- 0 AODV 48 [0 ffffffff 22 800] ------- [34:255 -1:255 29 0] [0x2 2 1 [0 0] [1 4]] (REQUEST)
r 1.008719884 _38_ RTR  --- 0 AODV 48 [0 ffffffff 22 800] ------- [34:255 -1:255 29 0] [0x2 2 1 [0 0] [1 4]] (REQUEST)
r 1.008719884 _39_ RTR  --- 0 AODV 48 [0 ffffffff 22 800] ------- [34:255 -1:255 29 0] [0x2 2 1 [0 0] [1 4]] (REQUEST)
r 1.008719901 _21_ RTR  --- 0 AODV 48 [0 ffffffff 22 800] ------- [34:255 -1:255 29 0] [0x2 2 1 [0 0] [1 4]] (REQUEST)
r 1.008719914 _33_ RTR  --- 0 AODV 48 [0 ffffffff 22 800] ------- [34:255 -1:255 29 0] [0x2 2 1 [0 0] [1 4]] (REQUEST)
r 1.008719946 _7_ RTR  --- 0 AODV 48 [0 ffffffff 22 800] ------- [34:255 -1:255 29 0] [0x2 2 1 [0 0] [1 4]] (REQUEST)
s 1.008774562 _44_ RTR  --- 0 AODV 48 [0 ffffffff 30 800] ------- [44:255 -1:255 28 0] [0x2 3 1 [0 0] [1 4]] (REQUEST)
s 1.009015231 _28_ RTR  --- 0 AODV 48 [0 ffffffff 30 800] ------- [28:255 -1:255 28 0] [0x2 3 1 [0 0] [1 4]] (REQUEST)
s 1.009139639 _39_ RTR  --- 0 AODV 48 [0 ffffffff e 800] ------- [39:255 -1:255 28 0] [0x2 3 1 [0 0] [1 4]] (REQUEST)
s 1.009400074 _2_ RTR  --- 0 AODV 48 [0 ffffffff 1 800] ------- [2:255 -1:255 29 0] [0x2 2 1 [0 0] [1 4]] (REQUEST)
s 1.009573505 _29_ RTR  --- 0 AODV 48 [0 ffffffff 1 800] ------- [29:255 -1:255 29 0] [0x2 2 1 [0 0] [1 4]] (REQUEST)
r 1.009922684 _29_ RTR  --- 0 AODV 48 [0 ffffffff 2c 800] ------- [44:255 -1:255 28 0] [0x2 3 1 [0 0] [1 4]] (REQUEST)
r 1.009922826 _34_ RTR  --- 0 AODV 48 [0 ffffffff 2c 800] ------- [44:255 -1:255 28 0] [0x2 3 1 [0 0] [1 4]] (REQUEST)
r 1.009922863 _23_ RTR  --- 0 AODV 48 [0 ffffffff 2c 800] ------- [44:255 -1:255 28 0] [0x2 3 1 [0 0] [1 4]] (REQUEST)
r 1.009923009 _8_ RTR  --- 0 AODV 48 [0 ffffffff 2c 800] ------- [44:255 -1:255 28 0] [0x2 3 1 [0 0] [1 4]] (REQUEST)
r 1.009923102 _40_ RTR  --- 0 AODV 48 [0 ffffffff 2c 800] ------- [44:255 -1:255 28 0] [0x2 3 1 [0 0] [1 4]] (REQUEST)
r 1.009923182 _48_ RTR  --- 0 AODV 48 [0 ffffffff 2c 800] ------- [44:255 -1:255 28 0] [0x2 3 1 [0 0] [1 4]] (REQUEST)
r 1.009923300 _7_ RTR  --- 0 AODV 48 [0 ffffffff 2c 800] ------- [44:255 -1:255 28 0] [0x2 3 1 [0 0] [1 4]] (REQUEST)
r 1.009923311 _21_ RTR  --- 0 AODV 48 [0 ffffffff 2c 800] ------- [44:255 -1:255 28 0] [0x2 3 1 [0 0] [1 4]] (REQUEST)
r 1.009923354 _33_ RTR  --- 0 AODV 48 [0 ffffffff 2c 800] ------- [44:255 -1:255 28 0] [0x2 3 1 [0 0] [1 4]] (REQUEST)
r 1.011020807 _44_ RTR  --- 0 AODV 48 [0 ffffffff 1d 800] ------- [29:255 -1:255 29 0] [0x2 2 1 [0 0] [1 4]] (REQUEST)
r 1.011020827 _34_ RTR  --- 0 AODV 48 [0 ffffffff 1d 800] ------- [29:255 -1:255 29 0] [0x2 2 1 [0 0] [1 4]] (REQUEST)
r 1.011021023 _8_ RTR  --- 0 AODV 48 [0 ffffffff 1d 800] ------- [29:255 -1:255 29 0] [0x2 2 1 [0 0] [1 4]] (REQUEST)
r 1.011021048 _23_ RTR  --- 0 AODV 48 [0 ffffffff 1d 800] ------- [29:255 -1:255 29 0] [0x2 2 1 [0 0] [1 4]] (REQUEST)
r 1.011021169 _40_ RTR  --- 0 AODV 48 [0 ffffffff 1d 800] ------- [29:255 -1:255 29 0] [0x2 2 1 [0 0] [1 4]] (REQUEST)
r 1.011021215 _48_ RTR  --- 0 AODV 48 [0 ffffffff 1d 800] ------- [29:255 -1:255 29 0] [0x2 2 1 [0 0] [1 4]] (REQUEST)
r 1.011021423 _21_ RTR  --- 0 AODV 48 [0 ffffffff 1d 800] ------- [29:255 -1:255 29 0] [0x2 2 1 [0 0] [1 4]] (REQUEST)
r 1.011021428 _1_ RTR  --- 0 AODV 48 [0 ffffffff 1d 800] ------- [29:255 -1:255 29 0] [0x2 2 1 [0 0] [1 4]] (REQUEST)
r 1.011021438 _7_ RTR  --- 0 AODV 48 [0 ffffffff 1d 800] ------- [29:255 -1:255 29 0] [0x2 2 1 [0 0] [1 4]] (REQUEST)
r 1.011021452 _33_ RTR  --- 0 AODV 48 [0 ffffffff 1d 800] ------- [29:255 -1:255 29 0] [0x2 2 1 [0 0] [1 4]] (REQUEST)
r 1.011021482 _14_ RTR  --- 0 AODV 48 [0 ffffffff 1d 800] ------- [29:255 -1:255 29 0] [0x2 2 1 [0 0] [1 4]] (REQUEST)
r 1.011021489 _38_ RTR  --- 0 AODV 48 [0 ffffffff 1d 800] ------- [29:255 -1:255 29 0] [0x2 2 1 [0 0] [1 4]] (REQUEST)
s 1.011263962 _33_ RTR  --- 0 AODV 48 [0 ffffffff 30 800] ------- [33:255 -1:255 28 0] [0x2 3 1 [0 0] [1 4]] (REQUEST)
s 1.011789028 _40_ RTR  --- 0 AODV 48 [0 ffffffff 30 800] ------- [40:255 -1:255 28 0] [0x2 3 1 [0 0] [1 4]] (REQUEST)
r 1.012332053 _21_ RTR  --- 0 AODV 48 [0 ffffffff 21 800] ------- [33:255 -1:255 28 0] [0x2 3 1 [0 0] [1 4]] (REQUEST)
r 1.012332209 _7_ RTR  --- 0 AODV 48 [0 ffffffff 21 800] ------- [33:255 -1:255 28 0] [0x2 3 1 [0 0] [1 4]] (REQUEST)
r 1.012332223 _28_ RTR  --- 0 AODV 48 [0 ffffffff 21 800] ------- [33:255 -1:255 28 0] [0x2 3 1 [0 0] [1 4]] (REQUEST)
r 1.012332283 _40_ RTR  --- 0 AODV 48 [0 ffffffff 21 800] ------- [33:255 -1:255 28 0] [0x2 3 1 [0 0] [1 4]] (REQUEST)
r 1.012332311 _9_ RTR  --- 0 AODV 48 [0 ffffffff 21 800] ------- [33:255 -1:255 28 0] [0x2 3 1 [0 0] [1 4]] (REQUEST)
r 1.012332418 _48_ RTR  --- 0 AODV 48 [0 ffffffff 21 800] ------- [33:255 -1:255 28 0] [0x2 3 1 [0 0] [1 4]] (REQUEST)
r 1.012332517 _3_ RTR  --- 0 AODV 48 [0 ffffffff 21 800] ------- [33:255 -1:255 28 0] [0x2 3 1 [0 0] [1 4]] (REQUEST)
r 1.012332541 _23_ RTR  --- 0 AODV 48 [0 ffffffff 21 800] ------- [33:255 -1:255 28 0] [0x2 3 1 [0 0] [1 4]] (REQUEST)
r 1.012332596 _39_ RTR  --- 0 AODV 48 [0 ffffffff 21 800] ------- [33:255 -1:255 28 0] [0x2 3 1 [0 0] [1 4]] (REQUEST)
r 1.012332600 _25_ RTR  --- 0 AODV 48 [0 ffffffff 21 800] ------- [33:255 -1:255 28 0] [0x2 3 1 [0 0] [1 4]] (REQUEST)
r 1.012332620 _19_ RTR  --- 0 AODV 48 [0 ffffffff 21 800] ------- [33:255 -1:255 28 0] [0x2 3 1 [0 0] [1 4]] (REQUEST)
r 1.012332683 _69_ RTR  --- 0 AODV 48 [0 ffffffff 21 800] ------- [33:255 -1:255 28 0] [0x2 3 1 [0 0] [1 4]] (REQUEST)
r 1.012332712 _34_ RTR  --- 0 AODV 48 [0 ffffffff 21 800] ------- [33:255 -1:255 28 0] [0x2 3 1 [0 0] [1 4]] (REQUEST)
r 1.012332730 _29_ RTR  --- 0 AODV 48 [0 ffffffff 21 800] ------- [33:255 -1:255 28 0] [0x2 3 1 [0 0] [1 4]] (REQUEST)
r 1.012332747 _54_ RTR  --- 0 AODV 48 [0 ffffffff 21 800] ------- [33:255 -1:255 28 0] [0x2 3 1 [0 0] [1 4]] (REQUEST)
r 1.012332751 _26_ RTR  --- 0 AODV 48 [0 ffffffff 21 800] ------- [33:255 -1:255 28 0] [0x2 3 1 [0 0] [1 4]] (REQUEST)
r 1.012332754 _44_ RTR  --- 0 AODV 48 [0 ffffffff 21 800] ------- [33:255 -1:255 28 0] [0x2 3 1 [0 0] [1 4]] (REQUEST)
s 1.013250488 _58_ RTR  --- 0 AODV 48 [0 ffffffff 1f 800] ------- [58:255 -1:255 28 0] [0x2 3 1 [0 0] [1 4]] (REQUEST)
r 1.013270856 _69_ RTR  --- 0 AODV 48 [0 ffffffff 13 800] ------- [19:255 -1:255 28 0] [0x2 3 1 [0 0] [1 4]] (REQUEST)
r 1.013270972 _39_ RTR  --- 0 AODV 48 [0 ffffffff 13 800] ------- [19:255 -1:255 28 0] [0x2 3 1 [0 0] [1 4]] (REQUEST)
r 1.013271105 _49_ RTR  --- 0 AODV 48 [0 ffffffff 13 800] ------- [19:255 -1:255 28 0] [0x2 3 1 [0 0] [1 4]] (REQUEST)
r 1.013271154 _65_ RTR  --- 0 AODV 48 [0 ffffffff 13 800] ------- [19:255 -1:255 28 0] [0x2 3 1 [0 0] [1 4]] (REQUEST)
r 1.013271186 _28_ RTR  --- 0 AODV 48 [0 ffffffff 13 800] ------- [19:255 -1:255 28 0] [0x2 3 1 [0 0] [1 4]] (REQUEST)
r 1.013271212 _61_ RTR  --- 0 AODV 48 [0 ffffffff 13 800] ------- [19:255 -1:255 28 0] [0x2 3 1 [0 0] [1 4]] (REQUEST)
r 1.013271217 _48_ RTR  --- 0 AODV 48 [0 ffffffff 13 800] ------- [19:255 -1:255 28 0] [0x2 3 1 [0 0] [1 4]] (REQUEST)
r 1.013271279 _33_ RTR  --- 0 AODV 48 [0 ffffffff 13 800] ------- [19:255 -1:255 28 0] [0x2 3 1 [0 0] [1 4]] (REQUEST)
r 1.013271286 _25_ RTR  --- 0 AODV 48 [0 ffffffff 13 800] ------- [19:255 -1:255 28 0] [0x2 3 1 [0 0] [1 4]] (REQUEST)
r 1.013271315 _67_ RTR  --- 0 AODV 48 [0 ffffffff 13 800] ------- [19:255 -1:255 28 0] [0x2 3 1 [0 0] [1 4]] (REQUEST)
r 1.013271315 _40_ RTR  --- 0 AODV 48 [0 ffffffff 13 800] ------- [19:255 -1:255 28 0] [0x2 3 1 [0 0] [1 4]] (REQUEST)
r 1.013271369 _21_ RTR  --- 0 AODV 48 [0 ffffffff 13 800] ------- [19:255 -1:255 28 0] [0x2 3 1 [0 0] [1 4]] (REQUEST)
r 1.013271387 _56_ RTR  --- 0 AODV 48 [0 ffffffff 13 800] ------- [19:255 -1:255 28 0] [0x2 3 1 [0 0] [1 4]] (REQUEST)
r 1.013271425 _26_ RTR  --- 0 AODV 48 [0 ffffffff 13 800] ------- [19:255 -1:255 28 0] [0x2 3 1 [0 0] [1 4]] (REQUEST)
r 1.013271436 _3_ RTR  --- 0 AODV 48 [0 ffffffff 13 800] ------- [19:255 -1:255 28 0] [0x2 3 1 [0 0] [1 4]] (REQUEST)
r 1.013271438 _47_ RTR  --- 0 AODV 48 [0 ffffffff 13 800] ------- [19:255 -1:255 28 0] [0x2 3 1 [0 0] [1 4]] (REQUEST)
r 1.013271439 _59_ RTR  --- 0 AODV 48 [0 ffffffff 13 800] ------- [19:255 -1:255 28 0] [0x2 3 1 [0 0] [1 4]] (REQUEST)
r 1.013271448 _31_ RTR  --- 0 AODV 48 [0 ffffffff 13 800] ------- [19:255 -1:255 28 0] [0x2 3 1 [0 0] [1 4]] (REQUEST)
r 1.013271451 _9_ RTR  --- 0 AODV 48 [0 ffffffff 13 800] ------- [19:255 -1:255 28 0] [0x2 3 1 [0 0] [1 4]] (REQUEST)
s 1.013376637 _9_ RTR  --- 0 AODV 48 [0 ffffffff 30 800] ------- [9:255 -1:255 28 0] [0x2 3 1 [0 0] [1 4]] (REQUEST)
s 1.013525910 _21_ RTR  --- 0 AODV 48 [0 ffffffff 30 800] ------- [21:255 -1:255 28 0] [0x2 3 1 [0 0] [1 4]] (REQUEST)
s 1.013546962 _56_ RTR  --- 0 AODV 48 [0 ffffffff 13 800] ------- [56:255 -1:255 27 0] [0x2 4 1 [0 0] [1 4]] (REQUEST)
s 1.013563552 _3_ RTR  --- 0 AODV 48 [0 ffffffff 21 800] ------- [3:255 -1:255 27 0] [0x2 4 1 [0 0] [1 4]] (REQUEST)
r 1.014189447 _33_ RTR  --- 0 AODV 48 [0 ffffffff 1c 800] ------- [28:255 -1:255 28 0] [0x2 3 1 [0 0] [1 4]] (REQUEST)
r 1.014189451 _9_ RTR  --- 0 AODV 48 [0 ffffffff 1c 800] ------- [28:255 -1:255 28 0] [0x2 3 1 [0 0] [1 4]] (REQUEST)
r 1.014189513 _21_ RTR  --- 0 AODV 48 [0 ffffffff 1c 800] ------- [28:255 -1:255 28 0] [0x2 3 1 [0 0] [1 4]] (REQUEST)
r 1.014189526 _3_ RTR  --- 0 AODV 48 [0 ffffffff 1c 800] ------- [28:255 -1:255 28 0] [0x2 3 1 [0 0] [1 4]] (REQUEST)
r 1.014189564 _25_ RTR  --- 0 AODV 48 [0 ffffffff 1c 800] ------- [28:255 -1:255 28 0] [0x2 3 1 [0 0] [1 4]] (REQUEST)
r 1.014189627 _7_ RTR  --- 0 AODV 48 [0 ffffffff 1c 800] ------- [28:255 -1:255 28 0] [0x2 3 1 [0 0] [1 4]] (REQUEST)
r 1.014189719 _26_ RTR  --- 0 AODV 48 [0 ffffffff 1c 800] ------- [28:255 -1:255 28 0] [0x2 3 1 [0 0] [1 4]] (REQUEST)
r 1.014189731 _69_ RTR  --- 0 AODV 48 [0 ffffffff 1c 800] ------- [28:255 -1:255 28 0] [0x2 3 1 [0 0] [1 4]] (REQUEST)
r 1.014189735 _40_ RTR  --- 0 AODV 48 [0 ffffffff 1c 800] ------- [28:255 -1:255 28 0] [0x2 3 1 [0 0] [1 4]] (REQUEST)
r 1.014189752 _19_ RTR  --- 0 AODV 48 [0 ffffffff 1c 800] ------- [28:255 -1:255 28 0] [0x2 3 1 [0 0] [1 4]] (REQUEST)
r 1.014189771 _54_ RTR  --- 0 AODV 48 [0 ffffffff 1c 800] ------- [28:255 -1:255 28 0] [0x2 3 1 [0 0] [1 4]] (REQUEST)
r 1.014189791 _67_ RTR  --- 0 AODV 48 [0 ffffffff 1c 800] ------- [28:255 -1:255 28 0] [0x2 3 1 [0 0] [1 4]] (REQUEST)
r 1.014189814 _48_ RTR  --- 0 AODV 48 [0 ffffffff 1c 800] ------- [28:255 -1:255 28 0] [0x2 3 1 [0 0] [1 4]] (REQUEST)
r 1.014189830 _47_ RTR  --- 0 AODV 48 [0 ffffffff 1c 800] ------- [28:255 -1:255 28 0] [0x2 3 1 [0 0] [1 4]] (REQUEST)
r 1.014189870 _39_ RTR  --- 0 AODV 48 [0 ffffffff 1c 800] ------- [28:255 -1:255 28 0] [0x2 3 1 [0 0] [1 4]] (REQUEST)
r 1.014189893 _13_ RTR  --- 0 AODV 48 [0 ffffffff 1c 800] ------- [28:255 -1:255 28 0] [0x2 3 1 [0 0] [1 4]] (REQUEST)
r 1.014189909 _32_ RTR  --- 0 AODV 48 [0 ffffffff 1c 800] ------- [28:255 -1:255 28 0] [0x2 3 1 [0 0] [1 4]] (REQUEST)
r 1.014189974 _4_ RTR  --- 0 AODV 48 [0 ffffffff 1c 800] ------- [28:255 -1:255 28 0] [0x2 3 1 [0 0] [1 4]] (REQUEST)
r 1.014190009 _15_ RTR  --- 0 AODV 48 [0 ffffffff 1c 800] ------- [28:255 -1:255 28 0] [0x2 3 1 [0 0] [1 4]] (REQUEST)
s 1.014691343 _15_ RTR  --- 0 AODV 48 [0 ffffffff 1c 800] ------- [15:255 -1:255 27 0] [0x2 4 1 [0 0] [1 4]] (REQUEST)
s 1.014902685 _54_ RTR  --- 0 AODV 48 [0 ffffffff 21 800] ------- [54:255 -1:255 27 0] [0x2 4 1 [0 0] [1 4]] (REQUEST)
s 1.015001216 _7_ RTR  --- 0 AODV 48 [0 ffffffff 30 800] ------- [7:255 -1:255 28 0] [0x2 3 1 [0 0] [1 4]] (REQUEST)
s 1.015103478 _32_ RTR  --- 0 AODV 48 [0 ffffffff 1c 800] ------- [32:255 -1:255 27 0] [0x2 4 1 [0 0] [1 4]] (REQUEST)
s 1.015114201 _69_ RTR  --- 0 AODV 48 [0 ffffffff 30 800] ------- [69:255 -1:255 28 0] [0x2 3 1 [0 0] [1 4]] (REQUEST)
s 1.015133582 _59_ RTR  --- 0 AODV 48 [0 ffffffff 13 800] ------- [59:255 -1:255 27 0] [0x2 4 1 [0 0] [1 4]] (REQUEST)
s 1.015223618 _23_ RTR  --- 0 AODV 48 [0 ffffffff 30 800] ------- [23:255 -1:255 28 0] [0x2 3 1 [0 0] [1 4]] (REQUEST)
r 1.015367604 _33_ RTR  --- 0 AODV 48 [0 ffffffff 15 800] ------- [21:255 -1:255 28 0] [0x2 3 1 [0 0] [1 4]] (REQUEST)
r 1.015367671 _7_ RTR  --- 0 AODV 48 [0 ffffffff 15 800] ------- [21:255 -1:255 28 0] [0x2 3 1 [0 0] [1 4]] (REQUEST)
r 1.015367859 _9_ RTR  --- 0 AODV 48 [0 ffffffff 15 800] ------- [21:255 -1:255 28 0] [0x2 3 1 [0 0] [1 4]] (REQUEST)
r 1.015367929 _48_ RTR  --- 0 AODV 48 [0 ffffffff 28 800] ------- [40:255 -1:255 28 0] [0x2 3 1 [0 0] [1 4]] (REQUEST)
s 1.015889396 _65_ RTR  --- 0 AODV 48 [0 ffffffff 13 800] ------- [65:255 -1:255 27 0] [0x2 4 1 [0 0] [1 4]] (REQUEST)
s 1.016544608 _47_ RTR  --- 0 AODV 48 [0 ffffffff 13 800] ------- [47:255 -1:255 27 0] [0x2 4 1 [0 0] [1 4]] (REQUEST)
r 1.016650667 _28_ RTR  --- 0 AODV 48 [0 ffffffff 9 800] ------- [9:255 -1:255 28 0] [0x2 3 1 [0 0] [1 4]] (REQUEST)
r 1.016650673 _3_ RTR  --- 0 AODV 48 [0 ffffffff 9 800] ------- [9:255 -1:255 28 0] [0x2 3 1 [0 0] [1 4]] (REQUEST)
r 1.016650748 _21_ RTR  --- 0 AODV 48 [0 ffffffff 9 800] ------- [9:255 -1:255 28 0] [0x2 3 1 [0 0] [1 4]] (REQUEST)
r 1.016650751 _33_ RTR  --- 0 AODV 48 [0 ffffffff 9 800] ------- [9:255 -1:255 28 0] [0x2 3 1 [0 0] [1 4]] (REQUEST)
r 1.016650760 _7_ RTR  --- 0 AODV 48 [0 ffffffff 9 800] ------- [9:255 -1:255 28 0] [0x2 3 1 [0 0] [1 4]] (REQUEST)
r 1.016650861 _54_ RTR  --- 0 AODV 48 [0 ffffffff 9 800] ------- [9:255 -1:255 28 0] [0x2 3 1 [0 0] [1 4]] (REQUEST)
r 1.016650903 _32_ RTR  --- 0 AODV 48 [0 ffffffff 9 800] ------- [9:255 -1:255 28 0] [0x2 3 1 [0 0] [1 4]] (REQUEST)
r 1.016650970 _13_ RTR  --- 0 AODV 48 [0 ffffffff 9 800] ------- [9:255 -1:255 28 0] [0x2 3 1 [0 0] [1 4]] (REQUEST)
r 1.016651021 _15_ RTR  --- 0 AODV 48 [0 ffffffff 9 800] ------- [9:255 -1:255 28 0] [0x2 3 1 [0 0] [1 4]] (REQUEST)
r 1.016651070 _40_ RTR  --- 0 AODV 48 [0 ffffffff 9 800] ------- [9:255 -1:255 28 0] [0x2 3 1 [0 0] [1 4]] (REQUEST)
r 1.016651212 _0_ RTR  --- 0 AODV 48 [0 ffffffff 38 800] ------- [56:255 -1:255 27 0] [0x2 4 1 [0 0] [1 4]] (REQUEST)
s 1.016651212 _0_ RTR  --- 0 AODV 44 [0 0 0 0] ------- [0:255 1:255 30 56] [0x4 1 [0 4] 10.000000] (REPLY)
r 1.016651215 _46_ RTR  --- 0 AODV 48 [0 ffffffff 9 800] ------- [9:255 -1:255 28 0] [0x2 3 1 [0 0] [1 4]] (REQUEST)
r 1.016651220 _23_ RTR  --- 0 AODV 48 [0 ffffffff 9 800] ------- [9:255 -1:255 28 0] [0x2 3 1 [0 0] [1 4]] (REQUEST)
r 1.016651428 _65_ RTR  --- 0 AODV 48 [0 ffffffff 38 800] ------- [56:255 -1:255 27 0] [0x2 4 1 [0 0] [1 4]] (REQUEST)
r 1.016651449 _61_ RTR  --- 0 AODV 48 [0 ffffffff 38 800] ------- [56:255 -1:255 27 0] [0x2 4 1 [0 0] [1 4]] (REQUEST)
r 1.016651721 _59_ RTR  --- 0 AODV 48 [0 ffffffff 38 800] ------- [56:255 -1:255 27 0] [0x2 4 1 [0 0] [1 4]] (REQUEST)
r 1.016651757 _35_ RTR  --- 0 AODV 48 [0 ffffffff 38 800] ------- [56:255 -1:255 27 0] [0x2 4 1 [0 0] [1 4]] (REQUEST)
r 1.016651790 _20_ RTR  --- 0 AODV 48 [0 ffffffff 38 800] ------- [56:255 -1:255 27 0] [0x2 4 1 [0 0] [1 4]] (REQUEST)
r 1.016651864 _11_ RTR  --- 0 AODV 48 [0 ffffffff 38 800] ------- [56:255 -1:255 27 0] [0x2 4 1 [0 0] [1 4]] (REQUEST)
r 1.016651904 _52_ RTR  --- 0 AODV 48 [0 ffffffff 38 800] ------- [56:255 -1:255 27 0] [0x2 4 1 [0 0] [1 4]] (REQUEST)
r 1.016651904 _64_ RTR  --- 0 AODV 48 [0 ffffffff 38 800] ------- [56:255 -1:255 27 0] [0x2 4 1 [0 0] [1 4]] (REQUEST)
s 1.017528187 _67_ RTR  --- 0 AODV 48 [0 ffffffff 13 800] ------- [67:255 -1:255 27 0] [0x2 4 1 [0 0] [1 4]] (REQUEST)
r 1.017955190 _44_ RTR  --- 0 AODV 48 [0 ffffffff 17 800] ------- [23:255 -1:255 28 0] [0x2 3 1 [0 0] [1 4]] (REQUEST)
r 1.017955253 _29_ RTR  --- 0 AODV 48 [0 ffffffff 17 800] ------- [23:255 -1:255 28 0] [0x2 3 1 [0 0] [1 4]] (REQUEST)
r 1.017955327 _40_ RTR  --- 0 AODV 48 [0 ffffffff 17 800] ------- [23:255 -1:255 28 0] [0x2 3 1 [0 0] [1 4]] (REQUEST)
r 1.017955348 _34_ RTR  --- 0 AODV 48 [0 ffffffff 17 800] ------- [23:255 -1:255 28 0] [0x2 3 1 [0 0] [1 4]] (REQUEST)
r 1.017955351 _7_ RTR  --- 0 AODV 48 [0 ffffffff 17 800] ------- [23:255 -1:255 28 0] [0x2 3 1 [0 0] [1 4]] (REQUEST)
r 1.017955403 _21_ RTR  --- 0 AODV 48 [0 ffffffff 17 800] ------- [23:255 -1:255 28 0] [0x2 3 1 [0 0] [1 4]] (REQUEST)
r 1.017955468 _33_ RTR  --- 0 AODV 48 [0 ffffffff 17 800] ------- [23:255 -1:255 28 0] [0x2 3 1 [0 0] [1 4]] (REQUEST)
r 1.017955488 _48_ RTR  --- 0 AODV 48 [0 ffffffff 17 800] ------- [23:255 -1:255 28 0] [0x2 3 1 [0 0] [1 4]] (REQUEST)
r 1.017955582 _8_ RTR  --- 0 AODV 48 [0 ffffffff 17 800] ------- [23:255 -1:255 28 0] [0x2 3 1 [0 0] [1 4]] (REQUEST)
r 1.017955707 _9_ RTR  --- 0 AODV 48 [0 ffffffff 17 800] ------- [23:255 -1:255 28 0] [0x2 3 1 [0 0] [1 4]] (REQUEST)
r 1.018094128 _64_ RTR  --- 0 AODV 48 [0 ffffffff 3b 800] ------- [59:255 -1:255 27 0] [0x2 4 1 [0 0] [1 4]] (REQUEST)
r 1.018094528 _20_ RTR  --- 0 AODV 48 [0 ffffffff 3b 800] ------- [59:255 -1:255 27 0] [0x2 4 1 [0 0] [1 4]] (REQUEST)
r 1.018094549 _6_ RTR  --- 0 AODV 48 [0 ffffffff 3b 800] ------- [59:255 -1:255 27 0] [0x2 4 1 [0 0] [1 4]] (REQUEST)
r 1.018094580 _42_ RTR  --- 0 AODV 48 [0 ffffffff 3b 800] ------- [59:255 -1:255 27 0] [0x2 4 1 [0 0] [1 4]] (REQUEST)
r 1.018094607 _35_ RTR  --- 0 AODV 48 [0 ffffffff 3b 800] ------- [59:255 -1:255 27 0] [0x2 4 1 [0 0] [1 4]] (REQUEST)
r 1.018094688 _27_ RTR  --- 0 AODV 48 [0 ffffffff 3b 800] ------- [59:255 -1:255 27 0] [0x2 4 1 [0 0] [1 4]] (REQUEST)
r 1.018094691 _11_ RTR  --- 0 AODV 48 [0 ffffffff 3b 800] ------- [59:255 -1:255 27 0] [0x2 4 1 [0 0] [1 4]] (REQUEST)
r 1.018094716 _58_ RTR  --- 0 AODV 48 [0 ffffffff 3b 800] ------- [59:255 -1:255 27 0] [0x2 4 1 [0 0] [1 4]] (REQUEST)
r 1.018094751 _60_ RTR  --- 0 AODV 48 [0 ffffffff 3b 800] ------- [59:255 -1:255 27 0] [0x2 4 1 [0 0] [1 4]] (REQUEST)
s 1.018151788 _52_ RTR  --- 0 AODV 48 [0 ffffffff 38 800] ------- [52:255 -1:255 26 0] [0x2 5 1 [0 0] [1 4]] (REQUEST)
s 1.018422675 _60_ RTR  --- 0 AODV 48 [0 ffffffff 3b 800] ------- [60:255 -1:255 26 0] [0x2 5 1 [0 0] [1 4]] (REQUEST)
s 1.018819609 _61_ RTR  --- 0 AODV 48 [0 ffffffff 13 800] ------- [61:255 -1:255 27 0] [0x2 4 1 [0 0] [1 4]] (REQUEST)
s 1.019018839 _25_ RTR  --- 0 AODV 48 [0 ffffffff 21 800] ------- [25:255 -1:255 27 0] [0x2 4 1 [0 0] [1 4]] (REQUEST)
r 1.019032896 _27_ RTR  --- 0 AODV 48 [0 ffffffff 3a 800] ------- [58:255 -1:255 28 0] [0x2 3 1 [0 0] [1 4]] (REQUEST)
r 1.019032912 _6_ RTR  --- 0 AODV 48 [0 ffffffff 3a 800] ------- [58:255 -1:255 28 0] [0x2 3 1 [0 0] [1 4]] (REQUEST)
r 1.019032985 _10_ RTR  --- 0 AODV 48 [0 ffffffff 3a 800] ------- [58:255 -1:255 28 0] [0x2 3 1 [0 0] [1 4]] (REQUEST)
r 1.019033012 _37_ RTR  --- 0 AODV 48 [0 ffffffff 3a 800] ------- [58:255 -1:255 28 0] [0x2 3 1 [0 0] [1 4]] (REQUEST)
r 1.019033046 _5_ RTR  --- 0 AODV 48 [0 ffffffff 3a 800] ------- [58:255 -1:255 28 0] [0x2 3 1 [0 0] [1 4]] (REQUEST)
r 1.019033289 _60_ RTR  --- 0 AODV 48 [0 ffffffff 3a 800] ------- [58:255 -1:255 28 0] [0x2 3 1 [0 0] [1 4]] (REQUEST)
r 1.019033304 _64_ RTR  --- 0 AODV 48 [0 ffffffff 3a 800] ------- [58:255 -1:255 28 0] [0x2 3 1 [0 0] [1 4]] (REQUEST)
r 1.019033452 _42_ RTR  --- 0 AODV 48 [0 ffffffff 3a 800] ------- [58:255 -1:255 28 0] [0x2 3 1 [0 0] [1 4]] (REQUEST)
r 1.019033454 _68_ RTR  --- 0 AODV 48 [0 ffffffff 3a 800] ------- [58:255 -1:255 28 0] [0x2 3 1 [0 0] [1 4]] (REQUEST)
r 1.019033467 _31_ RTR  --- 0 AODV 48 [0 ffffffff 3a 800] ------- [58:255 -1:255 28 0] [0x2 3 1 [0 0] [1 4]] (REQUEST)
r 1.019033501 _59_ RTR  --- 0 AODV 48 [0 ffffffff 3a 800] ------- [58:255 -1:255 28 0] [0x2 3 1 [0 0] [1 4]] (REQUEST)
s 1.019107191 _4_ RTR  --- 0 AODV 48 [0 ffffffff 1c 800] ------- [4:255 -1:255 27 0] [0x2 4 1 [0 0] [1 4]] (REQUEST)
r 1.019278380 _32_ RTR  --- 0 AODV 48 [0 ffffffff f 800] ------- [15:255 -1:255 27 0] [0x2 4 1 [0 0] [1 4]] (REQUEST)
r 1.019278483 _13_ RTR  --- 0 AODV 48 [0 ffffffff f 800] ------- [15:255 -1:255 27 0] [0x2 4 1 [0 0] [1 4]] (REQUEST)
r 1.019278554 _54_ RTR  --- 0 AODV 48 [0 ffffffff f 800] ------- [15:255 -1:255 27 0] [0x2 4 1 [0 0] [1 4]] (REQUEST)
r 1.019278683 _22_ RTR  --- 0 AODV 48 [0 ffffffff f 800] ------- [15:255 -1:255 27 0] [0x2 4 1 [0 0] [1 4]] (REQUEST)
r 1.019278758 _3_ RTR  --- 0 AODV 48 [0 ffffffff f 800] ------- [15:255 -1:255 27 0] [0x2 4 1 [0 0] [1 4]] (REQUEST)
r 1.019278865 _9_ RTR  --- 0 AODV 48 [0 ffffffff f 800] ------- [15:255 -1:255 27 0] [0x2 4 1 [0 0] [1 4]] (REQUEST)
r 1.019278885 _26_ RTR  --- 0 AODV 48 [0 ffffffff f 800] ------- [15:255 -1:255 27 0] [0x2 4 1 [0 0] [1 4]] (REQUEST)
r 1.019278920 _55_ RTR  --- 0 AODV 48 [0 ffffffff f 800] ------- [15:255 -1:255 27 0] [0x2 4 1 [0 0] [1 4]] (REQUEST)
r 1.019278981 _17_ RTR  --- 0 AODV 48 [0 ffffffff f 800] ------- [15:255 -1:255 27 0] [0x2 4 1 [0 0] [1 4]] (REQUEST)