+ 0.5 0 4 tcp 40 ------- 0 0.0 16.0 0 0
- 0.5 0 4 tcp 40 ------- 0 0.0 16.0 0 0
+ 0.5 1 4 tcp 40 ------- 0 1.0 16.1 0 1
- 0.5 1 4 tcp 40 ------- 0 1.0 16.1 0 1
+ 0.5 2 4 tcp 40 ------- 0 2.0 16.2 0 2
- 0.5 2 4 tcp 40 ------- 0 2.0 16.2 0 2
+ 0.5 3 4 tcp 40 ------- 0 3.0 16.3 0 3
- 0.5 3 4 tcp 40 ------- 0 3.0 16.3 0 3
+ 0.5 5 9 tcp 40 ------- 1 5.0 16.5 0 4
- 0.5 5 9 tcp 40 ------- 1 5.0 16.5 0 4
+ 0.5 6 9 tcp 40 ------- 1 6.0 16.6 0 5
- 0.5 6 9 tcp 40 ------- 1 6.0 16.6 0 5
+ 0.5 7 9 tcp 40 ------- 1 7.0 16.7 0 6
- 0.5 7 9 tcp 40 ------- 1 7.0 16.7 0 6
+ 0.5 8 9 tcp 40 ------- 1 8.0 16.8 0 7
- 0.5 8 9 tcp 40 ------- 1 8.0 16.8 0 7
r 0.600027 0 4 tcp 40 ------- 0 0.0 16.0 0 0
+ 0.600027 4 15 tcp 40 ------- 0 0.0 16.0 0 0
- 0.600027 4 15 tcp 40 ------- 0 0.0 16.0 0 0
r 0.600027 1 4 tcp 40 ------- 0 1.0 16.1 0 1
+ 0.600027 4 15 tcp 40 ------- 0 1.0 16.1 0 1
r 0.600027 2 4 tcp 40 ------- 0 2.0 16.2 0 2
+ 0.600027 4 15 tcp 40 ------- 0 2.0 16.2 0 2
r 0.600027 3 4 tcp 40 ------- 0 3.0 16.3 0 3
+ 0.600027 4 15 tcp 40 ------- 0 3.0 16.3 0 3
r 0.600027 5 9 tcp 40 ------- 1 5.0 16.5 0 4
+ 0.600027 9 15 tcp 40 ------- 1 5.0 16.5 0 4
- 0.600027 9 15 tcp 40 ------- 1 5.0 16.5 0 4
r 0.600027 6 9 tcp 40 ------- 1 6.0 16.6 0 5
+ 0.600027 9 15 tcp 40 ------- 1 6.0 16.6 0 5
r 0.600027 7 9 tcp 40 ------- 1 7.0 16.7 0 6
+ 0.600027 9 15 tcp 40 ------- 1 7.0 16.7 0 6
r 0.600027 8 9 tcp 40 ------- 1 8.0 16.8 0 7
+ 0.600027 9 15 tcp 40 ------- 1 8.0 16.8 0 7
- 0.600053 4 15 tcp 40 ------- 0 1.0 16.1 0 1
- 0.600053 9 15 tcp 40 ------- 1 6.0 16.6 0 5
- 0.60008 4 15 tcp 40 ------- 0 2.0 16.2 0 2
- 0.60008 9 15 tcp 40 ------- 1 7.0 16.7 0 6
- 0.600107 4 15 tcp 40 ------- 0 3.0 16.3 0 3
- 0.600107 9 15 tcp 40 ------- 1 8.0 16.8 0 7
r 0.700053 4 15 tcp 40 ------- 0 0.0 16.0 0 0
+ 0.700053 15 16 tcp 40 ------- 0 0.0 16.0 0 0
- 0.700053 15 16 tcp 40 ------- 0 0.0 16.0 0 0
r 0.700053 9 15 tcp 40 ------- 1 5.0 16.5 0 4
+ 0.700053 15 16 tcp 40 ------- 1 5.0 16.5 0 4
r 0.70008 4 15 tcp 40 ------- 0 1.0 16.1 0 1
+ 0.70008 15 16 tcp 40 ------- 0 1.0 16.1 0 1
r 0.70008 9 15 tcp 40 ------- 1 6.0 16.6 0 5
+ 0.70008 15 16 tcp 40 ------- 1 6.0 16.6 0 5
r 0.700107 4 15 tcp 40 ------- 0 2.0 16.2 0 2
+ 0.700107 15 16 tcp 40 ------- 0 2.0 16.2 0 2
r 0.700107 9 15 tcp 40 ------- 1 7.0 16.7 0 6
+ 0.700107 15 16 tcp 40 ------- 1 7.0 16.7 0 6
- 0.700107 15 16 tcp 40 ------- 1 5.0 16.5 0 4
r 0.700133 4 15 tcp 40 ------- 0 3.0 16.3 0 3
+ 0.700133 15 16 tcp 40 ------- 0 3.0 16.3 0 3
r 0.700133 9 15 tcp 40 ------- 1 8.0 16.8 0 7
+ 0.700133 15 16 tcp 40 ------- 1 8.0 16.8 0 7
- 0.70016 15 16 tcp 40 ------- 0 1.0 16.1 0 1
- 0.700213 15 16 tcp 40 ------- 1 6.0 16.6 0 5
- 0.700267 15 16 tcp 40 ------- 0 2.0 16.2 0 2
- 0.70032 15 16 tcp 40 ------- 1 7.0 16.7 0 6
- 0.700373 15 16 tcp 40 ------- 0 3.0 16.3 0 3
- 0.700427 15 16 tcp 40 ------- 1 8.0 16.8 0 7
r 0.900107 15 16 tcp 40 ------- 0 0.0 16.0 0 0
+ 0.900107 16 15 ack 40 ------- 0 16.0 0.0 0 8
- 0.900107 16 15 ack 40 ------- 0 16.0 0.0 0 8
r 0.90016 15 16 tcp 40 ------- 1 5.0 16.5 0 4
+ 0.90016 16 15 ack 40 ------- 1 16.5 5.0 0 9
- 0.90016 16 15 ack 40 ------- 1 16.5 5.0 0 9
r 0.900213 15 16 tcp 40 ------- 0 1.0 16.1 0 1
+ 0.900213 16 15 ack 40 ------- 0 16.1 1.0 0 10
- 0.900213 16 15 ack 40 ------- 0 16.1 1.0 0 10
r 0.900267 15 16 tcp 40 ------- 1 6.0 16.6 0 5
+ 0.900267 16 15 ack 40 ------- 1 16.6 6.0 0 11
- 0.900267 16 15 ack 40 ------- 1 16.6 6.0 0 11
r 0.90032 15 16 tcp 40 ------- 0 2.0 16.2 0 2
+ 0.90032 16 15 ack 40 ------- 0 16.2 2.0 0 12
- 0.90032 16 15 ack 40 ------- 0 16.2 2.0 0 12
r 0.900373 15 16 tcp 40 ------- 1 7.0 16.7 0 6
+ 0.900373 16 15 ack 40 ------- 1 16.7 7.0 0 13
- 0.900373 16 15 ack 40 ------- 1 16.7 7.0 0 13
r 0.900427 15 16 tcp 40 ------- 0 3.0 16.3 0 3
+ 0.900427 16 15 ack 40 ------- 0 16.3 3.0 0 14
- 0.900427 16 15 ack 40 ------- 0 16.3 3.0 0 14
r 0.90048 15 16 tcp 40 ------- 1 8.0 16.8 0 7
+ 0.90048 16 15 ack 40 ------- 1 16.8 8.0 0 15
- 0.90048 16 15 ack 40 ------- 1 16.8 8.0 0 15
r 1.10016 16 15 ack 40 ------- 0 16.0 0.0 0 8
+ 1.10016 15 4 ack 40 ------- 0 16.0 0.0 0 8
- 1.10016 15 4 ack 40 ------- 0 16.0 0.0 0 8
r 1.100213 16 15 ack 40 ------- 1 16.5 5.0 0 9
+ 1.100213 15 9 ack 40 ------- 1 16.5 5.0 0 9
- 1.100213 15 9 ack 40 ------- 1 16.5 5.0 0 9
r 1.100267 16 15 ack 40 ------- 0 16.1 1.0 0 10
+ 1.100267 15 4 ack 40 ------- 0 16.1 1.0 0 10
- 1.100267 15 4 ack 40 ------- 0 16.1 1.0 0 10
r 1.10032 16 15 ack 40 ------- 1 16.6 6.0 0 11
+ 1.10032 15 9 ack 40 ------- 1 16.6 6.0 0 11
- 1.10032 15 9 ack 40 ------- 1 16.6 6.0 0 11
r 1.100373 16 15 ack 40 ------- 0 16.2 2.0 0 12
+ 1.100373 15 4 ack 40 ------- 0 16.2 2.0 0 12
- 1.100373 15 4 ack 40 ------- 0 16.2 2.0 0 12
r 1.100427 16 15 ack 40 ------- 1 16.7 7.0 0 13
+ 1.100427 15 9 ack 40 ------- 1 16.7 7.0 0 13
- 1.100427 15 9 ack 40 ------- 1 16.7 7.0 0 13
r 1.10048 16 15 ack 40 ------- 0 16.3 3.0 0 14
+ 1.10048 15 4 ack 40 ------- 0 16.3 3.0 0 14
- 1.10048 15 4 ack 40 ------- 0 16.3 3.0 0 14
r 1.100533 16 15 ack 40 ------- 1 16.8 8.0 0 15
+ 1.100533 15 9 ack 40 ------- 1 16.8 8.0 0 15
- 1.100533 15 9 ack 40 ------- 1 16.8 8.0 0 15
r 1.200187 15 4 ack 40 ------- 0 16.0 0.0 0 8
+ 1.200187 4 0 ack 40 ------- 0 16.0 0.0 0 8
- 1.200187 4 0 ack 40 ------- 0 16.0 0.0 0 8
r 1.20024 15 9 ack 40 ------- 1 16.5 5.0 0 9
+ 1.20024 9 5 ack 40 ------- 1 16.5 5.0 0 9
- 1.20024 9 5 ack 40 ------- 1 16.5 5.0 0 9
r 1.200293 15 4 ack 40 ------- 0 16.1 1.0 0 10
+ 1.200293 4 1 ack 40 ------- 0 16.1 1.0 0 10
- 1.200293 4 1 ack 40 ------- 0 16.1 1.0 0 10
r 1.200347 15 9 ack 40 ------- 1 16.6 6.0 0 11
+ 1.200347 9 6 ack 40 ------- 1 16.6 6.0 0 11
- 1.200347 9 6 ack 40 ------- 1 16.6 6.0 0 11
r 1.2004 15 4 ack 40 ------- 0 16.2 2.0 0 12
+ 1.2004 4 2 ack 40 ------- 0 16.2 2.0 0 12
- 1.2004 4 2 ack 40 ------- 0 16.2 2.0 0 12
r 1.200453 15 9 ack 40 ------- 1 16.7 7.0 0 13
+ 1.200453 9 7 ack 40 ------- 1 16.7 7.0 0 13
- 1.200453 9 7 ack 40 ------- 1 16.7 7.0 0 13
r 1.200507 15 4 ack 40 ------- 0 16.3 3.0 0 14
+ 1.200507 4 3 ack 40 ------- 0 16.3 3.0 0 14
- 1.200507 4 3 ack 40 ------- 0 16.3 3.0 0 14
r 1.20056 15 9 ack 40 ------- 1 16.8 8.0 0 15
+ 1.20056 9 8 ack 40 ------- 1 16.8 8.0 0 15
- 1.20056 9 8 ack 40 ------- 1 16.8 8.0 0 15
r 1.300213 4 0 ack 40 ------- 0 16.0 0.0 0 8
+ 1.300213 0 4 tcp 1040 ------- 0 0.0 16.0 1 16
- 1.300213 0 4 tcp 1040 ------- 0 0.0 16.0 1 16
+ 1.300213 0 4 tcp 1040 ------- 0 0.0 16.0 2 17
r 1.300267 9 5 ack 40 ------- 1 16.5 5.0 0 9
+ 1.300267 5 9 tcp 1040 ------- 1 5.0 16.5 1 18
- 1.300267 5 9 tcp 1040 ------- 1 5.0 16.5 1 18
+ 1.300267 5 9 tcp 1040 ------- 1 5.0 16.5 2 19
r 1.30032 4 1 ack 40 ------- 0 16.1 1.0 0 10
+ 1.30032 1 4 tcp 1040 ------- 0 1.0 16.1 1 20
- 1.30032 1 4 tcp 1040 ------- 0 1.0 16.1 1 20
+ 1.30032 1 4 tcp 1040 ------- 0 1.0 16.1 2 21
r 1.300373 9 6 ack 40 ------- 1 16.6 6.0 0 11
+ 1.300373 6 9 tcp 1040 ------- 1 6.0 16.6 1 22
- 1.300373 6 9 tcp 1040 ------- 1 6.0 16.6 1 22
+ 1.300373 6 9 tcp 1040 ------- 1 6.0 16.6 2 23
r 1.300427 4 2 ack 40 ------- 0 16.2 2.0 0 12
+ 1.300427 2 4 tcp 1040 ------- 0 2.0 16.2 1 24
- 1.300427 2 4 tcp 1040 ------- 0 2.0 16.2 1 24
+ 1.300427 2 4 tcp 1040 ------- 0 2.0 16.2 2 25
r 1.30048 9 7 ack 40 ------- 1 16.7 7.0 0 13
+ 1.30048 7 9 tcp 1040 ------- 1 7.0 16.7 1 26
- 1.30048 7 9 tcp 1040 ------- 1 7.0 16.7 1 26
+ 1.30048 7 9 tcp 1040 ------- 1 7.0 16.7 2 27
r 1.300533 4 3 ack 40 ------- 0 16.3 3.0 0 14
+ 1.300533 3 4 tcp 1040 ------- 0 3.0 16.3 1 28
- 1.300533 3 4 tcp 1040 ------- 0 3.0 16.3 1 28
+ 1.300533 3 4 tcp 1040 ------- 0 3.0 16.3 2 29
r 1.300587 9 8 ack 40 ------- 1 16.8 8.0 0 15
+ 1.300587 8 9 tcp 1040 ------- 1 8.0 16.8 1 30
- 1.300587 8 9 tcp 1040 ------- 1 8.0 16.8 1 30
+ 1.300587 8 9 tcp 1040 ------- 1 8.0 16.8 2 31
- 1.300907 0 4 tcp 1040 ------- 0 0.0 16.0 2 17
- 1.30096 5 9 tcp 1040 ------- 1 5.0 16.5 2 19
- 1.301013 1 4 tcp 1040 ------- 0 1.0 16.1 2 21
- 1.301067 6 9 tcp 1040 ------- 1 6.0 16.6 2 23
- 1.30112 2 4 tcp 1040 ------- 0 2.0 16.2 2 25
- 1.301173 7 9 tcp 1040 ------- 1 7.0 16.7 2 27
- 1.301227 3 4 tcp 1040 ------- 0 3.0 16.3 2 29
- 1.30128 8 9 tcp 1040 ------- 1 8.0 16.8 2 31
r 1.400907 0 4 tcp 1040 ------- 0 0.0 16.0 1 16
+ 1.400907 4 15 tcp 1040 ------- 0 0.0 16.0 1 16
- 1.400907 4 15 tcp 1040 ------- 0 0.0 16.0 1 16
r 1.40096 5 9 tcp 1040 ------- 1 5.0 16.5 1 18
+ 1.40096 9 15 tcp 1040 ------- 1 5.0 16.5 1 18
- 1.40096 9 15 tcp 1040 ------- 1 5.0 16.5 1 18
r 1.401013 1 4 tcp 1040 ------- 0 1.0 16.1 1 20
+ 1.401013 4 15 tcp 1040 ------- 0 1.0 16.1 1 20
r 1.401067 6 9 tcp 1040 ------- 1 6.0 16.6 1 22
+ 1.401067 9 15 tcp 1040 ------- 1 6.0 16.6 1 22
r 1.40112 2 4 tcp 1040 ------- 0 2.0 16.2 1 24
+ 1.40112 4 15 tcp 1040 ------- 0 2.0 16.2 1 24
r 1.401173 7 9 tcp 1040 ------- 1 7.0 16.7 1 26
+ 1.401173 9 15 tcp 1040 ------- 1 7.0 16.7 1 26
r 1.401227 3 4 tcp 1040 ------- 0 3.0 16.3 1 28
+ 1.401227 4 15 tcp 1040 ------- 0 3.0 16.3 1 28
r 1.40128 8 9 tcp 1040 ------- 1 8.0 16.8 1 30
+ 1.40128 9 15 tcp 1040 ------- 1 8.0 16.8 1 30
r 1.4016 0 4 tcp 1040 ------- 0 0.0 16.0 2 17
+ 1.4016 4 15 tcp 1040 ------- 0 0.0 16.0 2 17
- 1.4016 4 15 tcp 1040 ------- 0 1.0 16.1 1 20
r 1.401653 5 9 tcp 1040 ------- 1 5.0 16.5 2 19
+ 1.401653 9 15 tcp 1040 ------- 1 5.0 16.5 2 19
- 1.401653 9 15 tcp 1040 ------- 1 6.0 16.6 1 22
r 1.401707 1 4 tcp 1040 ------- 0 1.0 16.1 2 21
+ 1.401707 4 15 tcp 1040 ------- 0 1.0 16.1 2 21
r 1.40176 6 9 tcp 1040 ------- 1 6.0 16.6 2 23
+ 1.40176 9 15 tcp 1040 ------- 1 6.0 16.6 2 23
r 1.401813 2 4 tcp 1040 ------- 0 2.0 16.2 2 25
+ 1.401813 4 15 tcp 1040 ------- 0 2.0 16.2 2 25
r 1.401867 7 9 tcp 1040 ------- 1 7.0 16.7 2 27
+ 1.401867 9 15 tcp 1040 ------- 1 7.0 16.7 2 27
r 1.40192 3 4 tcp 1040 ------- 0 3.0 16.3 2 29
+ 1.40192 4 15 tcp 1040 ------- 0 3.0 16.3 2 29
r 1.401973 8 9 tcp 1040 ------- 1 8.0 16.8 2 31
+ 1.401973 9 15 tcp 1040 ------- 1 8.0 16.8 2 31
- 1.402293 4 15 tcp 1040 ------- 0 2.0 16.2 1 24
- 1.402347 9 15 tcp 1040 ------- 1 7.0 16.7 1 26
- 1.402987 4 15 tcp 1040 ------- 0 3.0 16.3 1 28
- 1.40304 9 15 tcp 1040 ------- 1 8.0 16.8 1 30
- 1.40368 4 15 tcp 1040 ------- 0 0.0 16.0 2 17
- 1.403733 9 15 tcp 1040 ------- 1 5.0 16.5 2 19
- 1.404373 4 15 tcp 1040 ------- 0 1.0 16.1 2 21
- 1.404427 9 15 tcp 1040 ------- 1 6.0 16.6 2 23
- 1.405067 4 15 tcp 1040 ------- 0 2.0 16.2 2 25
- 1.40512 9 15 tcp 1040 ------- 1 7.0 16.7 2 27
- 1.40576 4 15 tcp 1040 ------- 0 3.0 16.3 2 29
- 1.405813 9 15 tcp 1040 ------- 1 8.0 16.8 2 31
+ 1.5 10 14 cbr 1000 ------- 2 10.0 16.4 0 32
- 1.5 10 14 cbr 1000 ------- 2 10.0 16.4 0 32
+ 1.5 10 14 cbr 1000 ------- 2 10.0 16.4 1 33
+ 1.5 10 14 cbr 1000 ------- 2 10.0 16.4 2 34
+ 1.5 11 14 cbr 1000 ------- 2 11.0 16.4 0 35
- 1.5 11 14 cbr 1000 ------- 2 11.0 16.4 0 35
+ 1.5 11 14 cbr 1000 ------- 2 11.0 16.4 1 36
+ 1.5 11 14 cbr 1000 ------- 2 11.0 16.4 2 37
+ 1.5 12 14 cbr 1000 ------- 2 12.0 16.4 0 38
- 1.5 12 14 cbr 1000 ------- 2 12.0 16.4 0 38
+ 1.5 12 14 cbr 1000 ------- 2 12.0 16.4 1 39
+ 1.5 12 14 cbr 1000 ------- 2 12.0 16.4 2 40
+ 1.5 13 14 cbr 1000 ------- 2 13.0 16.4 0 41
- 1.5 13 14 cbr 1000 ------- 2 13.0 16.4 0 41
+ 1.5 13 14 cbr 1000 ------- 2 13.0 16.4 1 42
+ 1.5 13 14 cbr 1000 ------- 2 13.0 16.4 2 43
- 1.500667 10 14 cbr 1000 ------- 2 10.0 16.4 1 33
- 1.500667 11 14 cbr 1000 ------- 2 11.0 16.4 1 36
- 1.500667 12 14 cbr 1000 ------- 2 12.0 16.4 1 39
- 1.500667 13 14 cbr 1000 ------- 2 13.0 16.4 1 42
- 1.501333 10 14 cbr 1000 ------- 2 10.0 16.4 2 34
- 1.501333 11 14 cbr 1000 ------- 2 11.0 16.4 2 37
- 1.501333 12 14 cbr 1000 ------- 2 12.0 16.4 2 40
- 1.501333 13 14 cbr 1000 ------- 2 13.0 16.4 2 43
r 1.5016 4 15 tcp 1040 ------- 0 0.0 16.0 1 16
+ 1.5016 15 16 tcp 1040 ------- 0 0.0 16.0 1 16
- 1.5016 15 16 tcp 1040 ------- 0 0.0 16.0 1 16
r 1.501653 9 15 tcp 1040 ------- 1 5.0 16.5 1 18
+ 1.501653 15 16 tcp 1040 ------- 1 5.0 16.5 1 18
r 1.502293 4 15 tcp 1040 ------- 0 1.0 16.1 1 20
+ 1.502293 15 16 tcp 1040 ------- 0 1.0 16.1 1 20
r 1.502347 9 15 tcp 1040 ------- 1 6.0 16.6 1 22
+ 1.502347 15 16 tcp 1040 ------- 1 6.0 16.6 1 22
- 1.502987 15 16 tcp 1040 ------- 1 5.0 16.5 1 18
r 1.502987 4 15 tcp 1040 ------- 0 2.0 16.2 1 24
+ 1.502987 15 16 tcp 1040 ------- 0 2.0 16.2 1 24
r 1.50304 9 15 tcp 1040 ------- 1 7.0 16.7 1 26
+ 1.50304 15 16 tcp 1040 ------- 1 7.0 16.7 1 26
r 1.50368 4 15 tcp 1040 ------- 0 3.0 16.3 1 28
+ 1.50368 15 16 tcp 1040 ------- 0 3.0 16.3 1 28
r 1.503733 9 15 tcp 1040 ------- 1 8.0 16.8 1 30
+ 1.503733 15 16 tcp 1040 ------- 1 8.0 16.8 1 30
- 1.504373 15 16 tcp 1040 ------- 0 1.0 16.1 1 20
r 1.504373 4 15 tcp 1040 ------- 0 0.0 16.0 2 17
+ 1.504373 15 16 tcp 1040 ------- 0 0.0 16.0 2 17
r 1.504427 9 15 tcp 1040 ------- 1 5.0 16.5 2 19
+ 1.504427 15 16 tcp 1040 ------- 1 5.0 16.5 2 19
r 1.505067 4 15 tcp 1040 ------- 0 1.0 16.1 2 21
+ 1.505067 15 16 tcp 1040 ------- 0 1.0 16.1 2 21
r 1.50512 9 15 tcp 1040 ------- 1 6.0 16.6 2 23
+ 1.50512 15 16 tcp 1040 ------- 1 6.0 16.6 2 23
- 1.50576 15 16 tcp 1040 ------- 1 6.0 16.6 1 22
r 1.50576 4 15 tcp 1040 ------- 0 2.0 16.2 2 25
+ 1.50576 15 16 tcp 1040 ------- 0 2.0 16.2 2 25
r 1.505813 9 15 tcp 1040 ------- 1 7.0 16.7 2 27
+ 1.505813 15 16 tcp 1040 ------- 1 7.0 16.7 2 27
d 1.505813 15 16 tcp 1040 ------- 1 7.0 16.7 2 27
r 1.506453 4 15 tcp 1040 ------- 0 3.0 16.3 2 29
+ 1.506453 15 16 tcp 1040 ------- 0 3.0 16.3 2 29
d 1.506453 15 16 tcp 1040 ------- 0 3.0 16.3 2 29
r 1.506507 9 15 tcp 1040 ------- 1 8.0 16.8 2 31
+ 1.506507 15 16 tcp 1040 ------- 1 8.0 16.8 2 31
d 1.506507 15 16 tcp 1040 ------- 1 8.0 16.8 2 31
- 1.507147 15 16 tcp 1040 ------- 0 2.0 16.2 1 24
- 1.508533 15 16 tcp 1040 ------- 1 7.0 16.7 1 26
- 1.50992 15 16 tcp 1040 ------- 0 3.0 16.3 1 28
+ 1.51 10 14 cbr 1000 ------- 2 10.0 16.4 3 44
- 1.51 10 14 cbr 1000 ------- 2 10.0 16.4 3 44
+ 1.51 10 14 cbr 1000 ------- 2 10.0 16.4 4 45
+ 1.51 10 14 cbr 1000 ------- 2 10.0 16.4 5 46
+ 1.51 11 14 cbr 1000 ------- 2 11.0 16.4 3 47
- 1.51 11 14 cbr 1000 ------- 2 11.0 16.4 3 47
+ 1.51 11 14 cbr 1000 ------- 2 11.0 16.4 4 48
+ 1.51 11 14 cbr 1000 ------- 2 11.0 16.4 5 49
+ 1.51 12 14 cbr 1000 ------- 2 12.0 16.4 3 50
- 1.51 12 14 cbr 1000 ------- 2 12.0 16.4 3 50
+ 1.51 12 14 cbr 1000 ------- 2 12.0 16.4 4 51
+ 1.51 12 14 cbr 1000 ------- 2 12.0 16.4 5 52
+ 1.51 13 14 cbr 1000 ------- 2 13.0 16.4 3 53
- 1.51 13 14 cbr 1000 ------- 2 13.0 16.4 3 53
+ 1.51 13 14 cbr 1000 ------- 2 13.0 16.4 4 54
+ 1.51 13 14 cbr 1000 ------- 2 13.0 16.4 5 55
- 1.510667 10 14 cbr 1000 ------- 2 10.0 16.4 4 45
- 1.510667 11 14 cbr 1000 ------- 2 11.0 16.4 4 48
- 1.510667 12 14 cbr 1000 ------- 2 12.0 16.4 4 51
- 1.510667 13 14 cbr 1000 ------- 2 13.0 16.4 4 54
- 1.511307 15 16 tcp 1040 ------- 1 8.0 16.8 1 30
- 1.511333 10 14 cbr 1000 ------- 2 10.0 16.4 5 46
- 1.511333 11 14 cbr 1000 ------- 2 11.0 16.4 5 49
- 1.511333 12 14 cbr 1000 ------- 2 12.0 16.4 5 52
- 1.511333 13 14 cbr 1000 ------- 2 13.0 16.4 5 55
- 1.512693 15 16 tcp 1040 ------- 0 0.0 16.0 2 17
- 1.51408 15 16 tcp 1040 ------- 1 5.0 16.5 2 19
- 1.515467 15 16 tcp 1040 ------- 0 1.0 16.1 2 21
- 1.516853 15 16 tcp 1040 ------- 1 6.0 16.6 2 23
- 1.51824 15 16 tcp 1040 ------- 0 2.0 16.2 2 25
+ 1.52 10 14 cbr 1000 ------- 2 10.0 16.4 6 56
- 1.52 10 14 cbr 1000 ------- 2 10.0 16.4 6 56
+ 1.52 10 14 cbr 1000 ------- 2 10.0 16.4 7 57
+ 1.52 10 14 cbr 1000 ------- 2 10.0 16.4 8 58
+ 1.52 11 14 cbr 1000 ------- 2 11.0 16.4 6 59
- 1.52 11 14 cbr 1000 ------- 2 11.0 16.4 6 59
+ 1.52 11 14 cbr 1000 ------- 2 11.0 16.4 7 60
+ 1.52 11 14 cbr 1000 ------- 2 11.0 16.4 8 61
+ 1.52 12 14 cbr 1000 ------- 2 12.0 16.4 6 62
- 1.52 12 14 cbr 1000 ------- 2 12.0 16.4 6 62
+ 1.52 12 14 cbr 1000 ------- 2 12.0 16.4 7 63
+ 1.52 12 14 cbr 1000 ------- 2 12.0 16.4 8 64
+ 1.52 13 14 cbr 1000 ------- 2 13.0 16.4 6 65
- 1.52 13 14 cbr 1000 ------- 2 13.0 16.4 6 65
+ 1.52 13 14 cbr 1000 ------- 2 13.0 16.4 7 66
+ 1.52 13 14 cbr 1000 ------- 2 13.0 16.4 8 67
- 1.520667 10 14 cbr 1000 ------- 2 10.0 16.4 7 57
- 1.520667 11 14 cbr 1000 ------- 2 11.0 16.4 7 60
- 1.520667 12 14 cbr 1000 ------- 2 12.0 16.4 7 63
- 1.520667 13 14 cbr 1000 ------- 2 13.0 16.4 7 66
- 1.521333 10 14 cbr 1000 ------- 2 10.0 16.4 8 58
- 1.521333 11 14 cbr 1000 ------- 2 11.0 16.4 8 61
- 1.521333 12 14 cbr 1000 ------- 2 12.0 16.4 8 64
- 1.521333 13 14 cbr 1000 ------- 2 13.0 16.4 8 67
+ 1.53 10 14 cbr 1000 ------- 2 10.0 16.4 9 68
- 1.53 10 14 cbr 1000 ------- 2 10.0 16.4 9 68
+ 1.53 10 14 cbr 1000 ------- 2 10.0 16.4 10 69
+ 1.53 10 14 cbr 1000 ------- 2 10.0 16.4 11 70
+ 1.53 11 14 cbr 1000 ------- 2 11.0 16.4 9 71
- 1.53 11 14 cbr 1000 ------- 2 11.0 16.4 9 71
+ 1.53 11 14 cbr 1000 ------- 2 11.0 16.4 10 72
+ 1.53 11 14 cbr 1000 ------- 2 11.0 16.4 11 73
+ 1.53 12 14 cbr 1000 ------- 2 12.0 16.4 9 74
- 1.53 12 14 cbr 1000 ------- 2 12.0 16.4 9 74
+ 1.53 12 14 cbr 1000 ------- 2 12.0 16.4 10 75
+ 1.53 12 14 cbr 1000 ------- 2 12.0 16.4 11 76
+ 1.53 13 14 cbr 1000 ------- 2 13.0 16.4 9 77
- 1.53 13 14 cbr 1000 ------- 2 13.0 16.4 9 77
+ 1.53 13 14 cbr 1000 ------- 2 13.0 16.4 10 78
+ 1.53 13 14 cbr 1000 ------- 2 13.0 16.4 11 79
- 1.530667 10 14 cbr 1000 ------- 2 10.0 16.4 10 69
- 1.530667 11 14 cbr 1000 ------- 2 11.0 16.4 10 72
- 1.530667 12 14 cbr 1000 ------- 2 12.0 16.4 10 75
- 1.530667 13 14 cbr 1000 ------- 2 13.0 16.4 10 78
- 1.531333 10 14 cbr 1000 ------- 2 10.0 16.4 11 70
- 1.531333 11 14 cbr 1000 ------- 2 11.0 16.4 11 73
- 1.531333 12 14 cbr 1000 ------- 2 12.0 16.4 11 76
- 1.531333 13 14 cbr 1000 ------- 2 13.0 16.4 11 79
+ 1.54 10 14 cbr 1000 ------- 2 10.0 16.4 12 80
- 1.54 10 14 cbr 1000 ------- 2 10.0 16.4 12 80
+ 1.54 10 14 cbr 1000 ------- 2 10.0 16.4 13 81
+ 1.54 10 14 cbr 1000 ------- 2 10.0 16.4 14 82
+ 1.54 11 14 cbr 1000 ------- 2 11.0 16.4 12 83
- 1.54 11 14 cbr 1000 ------- 2 11.0 16.4 12 83
+ 1.54 11 14 cbr 1000 ------- 2 11.0 16.4 13 84
+ 1.54 11 14 cbr 1000 ------- 2 11.0 16.4 14 85
+ 1.54 12 14 cbr 1000 ------- 2 12.0 16.4 12 86
- 1.54 12 14 cbr 1000 ------- 2 12.0 16.4 12 86
+ 1.54 12 14 cbr 1000 ------- 2 12.0 16.4 13 87
+ 1.54 12 14 cbr 1000 ------- 2 12.0 16.4 14 88
+ 1.54 13 14 cbr 1000 ------- 2 13.0 16.4 12 89
- 1.54 13 14 cbr 1000 ------- 2 13.0 16.4 12 89
+ 1.54 13 14 cbr 1000 ------- 2 13.0 16.4 13 90
+ 1.54 13 14 cbr 1000 ------- 2 13.0 16.4 14 91
- 1.540667 10 14 cbr 1000 ------- 2 10.0 16.4 13 81
- 1.540667 11 14 cbr 1000 ------- 2 11.0 16.4 13 84
- 1.540667 12 14 cbr 1000 ------- 2 12.0 16.4 13 87
- 1.540667 13 14 cbr 1000 ------- 2 13.0 16.4 13 90
- 1.541333 10 14 cbr 1000 ------- 2 10.0 16.4 14 82
- 1.541333 11 14 cbr 1000 ------- 2 11.0 16.4 14 85
- 1.541333 12 14 cbr 1000 ------- 2 12.0 16.4 14 88
- 1.541333 13 14 cbr 1000 ------- 2 13.0 16.4 14 91
+ 1.55 10 14 cbr 1000 ------- 2 10.0 16.4 15 92
- 1.55 10 14 cbr 1000 ------- 2 10.0 16.4 15 92
+ 1.55 10 14 cbr 1000 ------- 2 10.0 16.4 16 93
+ 1.55 10 14 cbr 1000 ------- 2 10.0 16.4 17 94
+ 1.55 11 14 cbr 1000 ------- 2 11.0 16.4 15 95
- 1.55 11 14 cbr 1000 ------- 2 11.0 16.4 15 95
+ 1.55 11 14 cbr 1000 ------- 2 11.0 16.4 16 96
+ 1.55 11 14 cbr 1000 ------- 2 11.0 16.4 17 97
+ 1.55 12 14 cbr 1000 ------- 2 12.0 16.4 15 98
- 1.55 12 14 cbr 1000 ------- 2 12.0 16.4 15 98
+ 1.55 12 14 cbr 1000 ------- 2 12.0 16.4 16 99
+ 1.55 12 14 cbr 1000 ------- 2 12.0 16.4 17 100
+ 1.55 13 14 cbr 1000 ------- 2 13.0 16.4 15 101
- 1.55 13 14 cbr 1000 ------- 2 13.0 16.4 15 101
+ 1.55 13 14 cbr 1000 ------- 2 13.0 16.4 16 102
+ 1.55 13 14 cbr 1000 ------- 2 13.0 16.4 17 103
- 1.550667 10 14 cbr 1000 ------- 2 10.0 16.4 16 93
- 1.550667 11 14 cbr 1000 ------- 2 11.0 16.4 16 96
- 1.550667 12 14 cbr 1000 ------- 2 12.0 16.4 16 99
- 1.550667 13 14 cbr 1000 ------- 2 13.0 16.4 16 102
- 1.551333 10 14 cbr 1000 ------- 2 10.0 16.4 17 94
- 1.551333 11 14 cbr 1000 ------- 2 11.0 16.4 17 97
- 1.551333 12 14 cbr 1000 ------- 2 12.0 16.4 17 100
- 1.551333 13 14 cbr 1000 ------- 2 13.0 16.4 17 103
+ 1.56 10 14 cbr 1000 ------- 2 10.0 16.4 18 104
- 1.56 10 14 cbr 1000 ------- 2 10.0 16.4 18 104
+ 1.56 10 14 cbr 1000 ------- 2 10.0 16.4 19 105
+ 1.56 10 14 cbr 1000 ------- 2 10.0 16.4 20 106
+ 1.56 11 14 cbr 1000 ------- 2 11.0 16.4 18 107
- 1.56 11 14 cbr 1000 ------- 2 11.0 16.4 18 107
+ 1.56 11 14 cbr 1000 ------- 2 11.0 16.4 19 108
+ 1.56 11 14 cbr 1000 ------- 2 11.0 16.4 20 109
+ 1.56 12 14 cbr 1000 ------- 2 12.0 16.4 18 110
- 1.56 12 14 cbr 1000 ------- 2 12.0 16.4 18 110
+ 1.56 12 14 cbr 1000 ------- 2 12.0 16.4 19 111
+ 1.56 12 14 cbr 1000 ------- 2 12.0 16.4 20 112
+ 1.56 13 14 cbr 1000 ------- 2 13.0 16.4 18 113
- 1.56 13 14 cbr 1000 ------- 2 13.0 16.4 18 113
+ 1.56 13 14 cbr 1000 ------- 2 13.0 16.4 19 114
+ 1.56 13 14 cbr 1000 ------- 2 13.0 16.4 20 115
- 1.560667 10 14 cbr 1000 ------- 2 10.0 16.4 19 105
- 1.560667 11 14 cbr 1000 ------- 2 11.0 16.4 19 108
- 1.560667 12 14 cbr 1000 ------- 2 12.0 16.4 19 111
- 1.560667 13 14 cbr 1000 ------- 2 13.0 16.4 19 114
- 1.561333 10 14 cbr 1000 ------- 2 10.0 16.4 20 106
- 1.561333 11 14 cbr 1000 ------- 2 11.0 16.4 20 109
- 1.561333 12 14 cbr 1000 ------- 2 12.0 16.4 20 112
- 1.561333 13 14 cbr 1000 ------- 2 13.0 16.4 20 115
+ 1.57 10 14 cbr 1000 ------- 2 10.0 16.4 21 116
- 1.57 10 14 cbr 1000 ------- 2 10.0 16.4 21 116
+ 1.57 10 14 cbr 1000 ------- 2 10.0 16.4 22 117
+ 1.57 10 14 cbr 1000 ------- 2 10.0 16.4 23 118
+ 1.57 11 14 cbr 1000 ------- 2 11.0 16.4 21 119
- 1.57 11 14 cbr 1000 ------- 2 11.0 16.4 21 119
+ 1.57 11 14 cbr 1000 ------- 2 11.0 16.4 22 120
+ 1.57 11 14 cbr 1000 ------- 2 11.0 16.4 23 121
+ 1.57 12 14 cbr 1000 ------- 2 12.0 16.4 21 122
- 1.57 12 14 cbr 1000 ------- 2 12.0 16.4 21 122
+ 1.57 12 14 cbr 1000 ------- 2 12.0 16.4 22 123
+ 1.57 12 14 cbr 1000 ------- 2 12.0 16.4 23 124
+ 1.57 13 14 cbr 1000 ------- 2 13.0 16.4 21 125
- 1.57 13 14 cbr 1000 ------- 2 13.0 16.4 21 125
+ 1.57 13 14 cbr 1000 ------- 2 13.0 16.4 22 126
+ 1.57 13 14 cbr 1000 ------- 2 13.0 16.4 23 127
- 1.570667 10 14 cbr 1000 ------- 2 10.0 16.4 22 117
- 1.570667 11 14 cbr 1000 ------- 2 11.0 16.4 22 120
- 1.570667 12 14 cbr 1000 ------- 2 12.0 16.4 22 123
- 1.570667 13 14 cbr 1000 ------- 2 13.0 16.4 22 126
- 1.571333 10 14 cbr 1000 ------- 2 10.0 16.4 23 118
- 1.571333 11 14 cbr 1000 ------- 2 11.0 16.4 23 121
- 1.571333 12 14 cbr 1000 ------- 2 12.0 16.4 23 124
- 1.571333 13 14 cbr 1000 ------- 2 13.0 16.4 23 127
+ 1.58 10 14 cbr 1000 ------- 2 10.0 16.4 24 128
- 1.58 10 14 cbr 1000 ------- 2 10.0 16.4 24 128
+ 1.58 10 14 cbr 1000 ------- 2 10.0 16.4 25 129
+ 1.58 10 14 cbr 1000 ------- 2 10.0 16.4 26 130
+ 1.58 11 14 cbr 1000 ------- 2 11.0 16.4 24 131
- 1.58 11 14 cbr 1000 ------- 2 11.0 16.4 24 131
+ 1.58 11 14 cbr 1000 ------- 2 11.0 16.4 25 132
+ 1.58 11 14 cbr 1000 ------- 2 11.0 16.4 26 133
+ 1.58 12 14 cbr 1000 ------- 2 12.0 16.4 24 134
- 1.58 12 14 cbr 1000 ------- 2 12.0 16.4 24 134
+ 1.58 12 14 cbr 1000 ------- 2 12.0 16.4 25 135
+ 1.58 12 14 cbr 1000 ------- 2 12.0 16.4 26 136
+ 1.58 13 14 cbr 1000 ------- 2 13.0 16.4 24 137
- 1.58 13 14 cbr 1000 ------- 2 13.0 16.4 24 137
+ 1.58 13 14 cbr 1000 ------- 2 13.0 16.4 25 138
+ 1.58 13 14 cbr 1000 ------- 2 13.0 16.4 26 139
- 1.580667 10 14 cbr 1000 ------- 2 10.0 16.4 25 129
- 1.580667 11 14 cbr 1000 ------- 2 11.0 16.4 25 132
- 1.580667 12 14 cbr 1000 ------- 2 12.0 16.4 25 135
- 1.580667 13 14 cbr 1000 ------- 2 13.0 16.4 25 138
- 1.581333 10 14 cbr 1000 ------- 2 10.0 16.4 26 130
- 1.581333 11 14 cbr 1000 ------- 2 11.0 16.4 26 133
- 1.581333 12 14 cbr 1000 ------- 2 12.0 16.4 26 136
- 1.581333 13 14 cbr 1000 ------- 2 13.0 16.4 26 139
+ 1.59 10 14 cbr 1000 ------- 2 10.0 16.4 27 140
- 1.59 10 14 cbr 1000 ------- 2 10.0 16.4 27 140
+ 1.59 10 14 cbr 1000 ------- 2 10.0 16.4 28 141
+ 1.59 10 14 cbr 1000 ------- 2 10.0 16.4 29 142
+ 1.59 11 14 cbr 1000 ------- 2 11.0 16.4 27 143
- 1.59 11 14 cbr 1000 ------- 2 11.0 16.4 27 143
+ 1.59 11 14 cbr 1000 ------- 2 11.0 16.4 28 144
+ 1.59 11 14 cbr 1000 ------- 2 11.0 16.4 29 145
+ 1.59 12 14 cbr 1000 ------- 2 12.0 16.4 27 146
- 1.59 12 14 cbr 1000 ------- 2 12.0 16.4 27 146
+ 1.59 12 14 cbr 1000 ------- 2 12.0 16.4 28 147
+ 1.59 12 14 cbr 1000 ------- 2 12.0 16.4 29 148
+ 1.59 13 14 cbr 1000 ------- 2 13.0 16.4 27 149
- 1.59 13 14 cbr 1000 ------- 2 13.0 16.4 27 149
+ 1.59 13 14 cbr 1000 ------- 2 13.0 16.4 28 150
+ 1.59 13 14 cbr 1000 ------- 2 13.0 16.4 29 151
- 1.590667 10 14 cbr 1000 ------- 2 10.0 16.4 28 141
- 1.590667 11 14 cbr 1000 ------- 2 11.0 16.4 28 144
- 1.590667 12 14 cbr 1000 ------- 2 12.0 16.4 28 147
- 1.590667 13 14 cbr 1000 ------- 2 13.0 16.4 28 150
- 1.591333 10 14 cbr 1000 ------- 2 10.0 16.4 29 142
- 1.591333 11 14 cbr 1000 ------- 2 11.0 16.4 29 145
- 1.591333 12 14 cbr 1000 ------- 2 12.0 16.4 29 148
- 1.591333 13 14 cbr 1000 ------- 2 13.0 16.4 29 151
+ 1.6 10 14 cbr 1000 ------- 2 10.0 16.4 30 152
- 1.6 10 14 cbr 1000 ------- 2 10.0 16.4 30 152
+ 1.6 10 14 cbr 1000 ------- 2 10.0 16.4 31 153
+ 1.6 10 14 cbr 1000 ------- 2 10.0 16.4 32 154
+ 1.6 11 14 cbr 1000 ------- 2 11.0 16.4 30 155
- 1.6 11 14 cbr 1000 ------- 2 11.0 16.4 30 155
+ 1.6 11 14 cbr 1000 ------- 2 11.0 16.4 31 156
+ 1.6 11 14 cbr 1000 ------- 2 11.0 16.4 32 157
+ 1.6 12 14 cbr 1000 ------- 2 12.0 16.4 30 158
- 1.6 12 14 cbr 1000 ------- 2 12.0 16.4 30 158
+ 1.6 12 14 cbr 1000 ------- 2 12.0 16.4 31 159
+ 1.6 12 14 cbr 1000 ------- 2 12.0 16.4 32 160
+ 1.6 13 14 cbr 1000 ------- 2 13.0 16.4 30 161
- 1.6 13 14 cbr 1000 ------- 2 13.0 16.4 30 161
+ 1.6 13 14 cbr 1000 ------- 2 13.0 16.4 31 162
+ 1.6 13 14 cbr 1000 ------- 2 13.0 16.4 32 163
r 1.600667 10 14 cbr 1000 ------- 2 10.0 16.4 0 32
+ 1.600667 14 15 cbr 1000 ------- 2 10.0 16.4 0 32
- 1.600667 14 15 cbr 1000 ------- 2 10.0 16.4 0 32
r 1.600667 11 14 cbr 1000 ------- 2 11.0 16.4 0 35
+ 1.600667 14 15 cbr 1000 ------- 2 11.0 16.4 0 35
r 1.600667 12 14 cbr 1000 ------- 2 12.0 16.4 0 38
+ 1.600667 14 15 cbr 1000 ------- 2 12.0 16.4 0 38
r 1.600667 13 14 cbr 1000 ------- 2 13.0 16.4 0 41
+ 1.600667 14 15 cbr 1000 ------- 2 13.0 16.4 0 41
- 1.600667 10 14 cbr 1000 ------- 2 10.0 16.4 31 153
- 1.600667 11 14 cbr 1000 ------- 2 11.0 16.4 31 156
- 1.600667 12 14 cbr 1000 ------- 2 12.0 16.4 31 159
- 1.600667 13 14 cbr 1000 ------- 2 13.0 16.4 31 162
r 1.601333 10 14 cbr 1000 ------- 2 10.0 16.4 1 33
+ 1.601333 14 15 cbr 1000 ------- 2 10.0 16.4 1 33
r 1.601333 11 14 cbr 1000 ------- 2 11.0 16.4 1 36
+ 1.601333 14 15 cbr 1000 ------- 2 11.0 16.4 1 36
r 1.601333 12 14 cbr 1000 ------- 2 12.0 16.4 1 39
+ 1.601333 14 15 cbr 1000 ------- 2 12.0 16.4 1 39
r 1.601333 13 14 cbr 1000 ------- 2 13.0 16.4 1 42
+ 1.601333 14 15 cbr 1000 ------- 2 13.0 16.4 1 42
- 1.601333 14 15 cbr 1000 ------- 2 11.0 16.4 0 35
- 1.601333 10 14 cbr 1000 ------- 2 10.0 16.4 32 154
- 1.601333 11 14 cbr 1000 ------- 2 11.0 16.4 32 157
- 1.601333 12 14 cbr 1000 ------- 2 12.0 16.4 32 160
- 1.601333 13 14 cbr 1000 ------- 2 13.0 16.4 32 163
r 1.602 10 14 cbr 1000 ------- 2 10.0 16.4 2 34
+ 1.602 14 15 cbr 1000 ------- 2 10.0 16.4 2 34
r 1.602 11 14 cbr 1000 ------- 2 11.0 16.4 2 37
+ 1.602 14 15 cbr 1000 ------- 2 11.0 16.4 2 37
r 1.602 12 14 cbr 1000 ------- 2 12.0 16.4 2 40
+ 1.602 14 15 cbr 1000 ------- 2 12.0 16.4 2 40
r 1.602 13 14 cbr 1000 ------- 2 13.0 16.4 2 43
+ 1.602 14 15 cbr 1000 ------- 2 13.0 16.4 2 43
- 1.602 14 15 cbr 1000 ------- 2 12.0 16.4 0 38
- 1.602667 14 15 cbr 1000 ------- 2 13.0 16.4 0 41
- 1.603333 14 15 cbr 1000 ------- 2 10.0 16.4 1 33
- 1.604 14 15 cbr 1000 ------- 2 11.0 16.4 1 36
- 1.604667 14 15 cbr 1000 ------- 2 12.0 16.4 1 39
- 1.605333 14 15 cbr 1000 ------- 2 13.0 16.4 1 42
- 1.606 14 15 cbr 1000 ------- 2 10.0 16.4 2 34
- 1.606667 14 15 cbr 1000 ------- 2 11.0 16.4 2 37
- 1.607333 14 15 cbr 1000 ------- 2 12.0 16.4 2 40
- 1.608 14 15 cbr 1000 ------- 2 13.0 16.4 2 43
+ 1.61 10 14 cbr 1000 ------- 2 10.0 16.4 33 164
- 1.61 10 14 cbr 1000 ------- 2 10.0 16.4 33 164
+ 1.61 10 14 cbr 1000 ------- 2 10.0 16.4 34 165
+ 1.61 10 14 cbr 1000 ------- 2 10.0 16.4 35 166
+ 1.61 11 14 cbr 1000 ------- 2 11.0 16.4 33 167
- 1.61 11 14 cbr 1000 ------- 2 11.0 16.4 33 167
+ 1.61 11 14 cbr 1000 ------- 2 11.0 16.4 34 168
+ 1.61 11 14 cbr 1000 ------- 2 11.0 16.4 35 169
+ 1.61 12 14 cbr 1000 ------- 2 12.0 16.4 33 170
- 1.61 12 14 cbr 1000 ------- 2 12.0 16.4 33 170
+ 1.61 12 14 cbr 1000 ------- 2 12.0 16.4 34 171
+ 1.61 12 14 cbr 1000 ------- 2 12.0 16.4 35 172
+ 1.61 13 14 cbr 1000 ------- 2 13.0 16.4 33 173
- 1.61 13 14 cbr 1000 ------- 2 13.0 16.4 33 173
+ 1.61 13 14 cbr 1000 ------- 2 13.0 16.4 34 174
+ 1.61 13 14 cbr 1000 ------- 2 13.0 16.4 35 175
r 1.610667 10 14 cbr 1000 ------- 2 10.0 16.4 3 44
+ 1.610667 14 15 cbr 1000 ------- 2 10.0 16.4 3 44
- 1.610667 14 15 cbr 1000 ------- 2 10.0 16.4 3 44
r 1.610667 11 14 cbr 1000 ------- 2 11.0 16.4 3 47
+ 1.610667 14 15 cbr 1000 ------- 2 11.0 16.4 3 47
r 1.610667 12 14 cbr 1000 ------- 2 12.0 16.4 3 50
+ 1.610667 14 15 cbr 1000 ------- 2 12.0 16.4 3 50
r 1.610667 13 14 cbr 1000 ------- 2 13.0 16.4 3 53
+ 1.610667 14 15 cbr 1000 ------- 2 13.0 16.4 3 53
- 1.610667 10 14 cbr 1000 ------- 2 10.0 16.4 34 165
- 1.610667 11 14 cbr 1000 ------- 2 11.0 16.4 34 168
- 1.610667 12 14 cbr 1000 ------- 2 12.0 16.4 34 171
- 1.610667 13 14 cbr 1000 ------- 2 13.0 16.4 34 174
r 1.611333 10 14 cbr 1000 ------- 2 10.0 16.4 4 45
+ 1.611333 14 15 cbr 1000 ------- 2 10.0 16.4 4 45
r 1.611333 11 14 cbr 1000 ------- 2 11.0 16.4 4 48
+ 1.611333 14 15 cbr 1000 ------- 2 11.0 16.4 4 48
r 1.611333 12 14 cbr 1000 ------- 2 12.0 16.4 4 51
+ 1.611333 14 15 cbr 1000 ------- 2 12.0 16.4 4 51
r 1.611333 13 14 cbr 1000 ------- 2 13.0 16.4 4 54
+ 1.611333 14 15 cbr 1000 ------- 2 13.0 16.4 4 54
- 1.611333 14 15 cbr 1000 ------- 2 11.0 16.4 3 47
- 1.611333 10 14 cbr 1000 ------- 2 10.0 16.4 35 166
- 1.611333 11 14 cbr 1000 ------- 2 11.0 16.4 35 169
- 1.611333 12 14 cbr 1000 ------- 2 12.0 16.4 35 172
- 1.611333 13 14 cbr 1000 ------- 2 13.0 16.4 35 175
r 1.612 10 14 cbr 1000 ------- 2 10.0 16.4 5 46
+ 1.612 14 15 cbr 1000 ------- 2 10.0 16.4 5 46
r 1.612 11 14 cbr 1000 ------- 2 11.0 16.4 5 49
+ 1.612 14 15 cbr 1000 ------- 2 11.0 16.4 5 49
r 1.612 12 14 cbr 1000 ------- 2 12.0 16.4 5 52